<?xml version="1.0"?>
<VTKFile type="StructuredGrid"  version="0.1" byte_order="LittleEndian" compressor="vtkZLibDataCompressor">
  <StructuredGrid WholeExtent="0 700 0 30 0 0">
    <Piece Extent="0 700 0 30 0 0">
      <PointData Vectors="Velocity">
        <DataArray type="Float32" Name="Velocity" NumberOfComponents="3" format="ascii">
-1089.14 143.473 0
-1089.22 133.59 0
-1089.35 123.871 0
-1089.52 114.402 0
-1089.69 105.22 0
-1089.86 96.3321 0
-1090.03 87.7375 0
-1090.22 79.4537 0
-1090.4 71.4939 0
-1090.58 63.8797 0
-1090.76 56.621 0
-1090.92 49.7108 0
-1091.06 43.1435 0
-1091.18 36.9238 0
-1091.27 31.0376 0
-1091.32 25.4732 0
-1091.34 20.2189 0
-1091.31 15.2558 0
-1091.25 10.5765 0
-1091.13 6.16662 0
-1090.98 1.99876 0
-1090.78 -1.91931 0
-1090.54 -5.62764 0
-1090.25 -9.1138 0
-1089.93 -12.4015 0
-1089.57 -15.4967 0
-1089.18 -18.4114 0
-1088.76 -21.1475 0
-1088.3 -23.7189 0
-1087.82 -26.1259 0
-1087.31 -28.3751 0
-1086.77 -30.4735 0
-1086.2 -32.433 0
-1085.61 -34.256 0
-1085 -35.9471 0
-1084.36 -37.4975 0
-1083.7 -38.9238 0
-1083.01 -40.2269 0
-1082.3 -41.4124 0
-1081.57 -42.4759 0
-1080.81 -43.4331 0
-1080.03 -44.2729 0
-1079.23 -45.0155 0
-1078.41 -45.6493 0
-1077.56 -46.1828 0
-1076.68 -46.6187 0
-1075.77 -46.9667 0
-1074.85 -47.2239 0
-1073.9 -47.3974 0
-1072.93 -47.4916 0
-1071.93 -47.5014 0
-1070.9 -47.4388 0
-1069.86 -47.2997 0
-1068.79 -47.0938 0
-1067.7 -46.8243 0
-1066.58 -46.4957 0
-1065.44 -46.1038 0
-1064.28 -45.6501 0
-1063.09 -45.151 0
-1061.88 -44.6004 0
-1060.66 -44.0031 0
-1059.41 -43.3633 0
-1058.13 -42.6767 0
-1056.84 -41.9527 0
-1055.52 -41.1912 0
-1054.19 -40.4021 0
-1052.83 -39.5814 0
-1051.46 -38.7309 0
-1050.07 -37.8486 0
-1048.66 -36.9448 0
-1047.23 -36.02 0
-1045.79 -35.0747 0
-1044.32 -34.1138 0
-1042.85 -33.1412 0
-1041.35 -32.1484 0
-1039.85 -31.1414 0
-1038.32 -30.1299 0
-1036.78 -29.1084 0
-1035.23 -28.0827 0
-1033.66 -27.0458 0
-1032.07 -26.013 0
-1030.48 -24.9769 0
-1028.87 -23.9362 0
-1027.25 -22.9006 0
-1025.63 -21.861 0
-1023.99 -20.8282 0
-1022.33 -19.8046 0
-1020.67 -18.7764 0
-1019 -17.7572 0
-1017.32 -16.7553 0
-1015.63 -15.7518 0
-1013.93 -14.7642 0
-1012.22 -13.7872 0
-1010.5 -12.8202 0
-1008.78 -11.8625 0
-1007.05 -10.9199 0
-1005.31 -9.99094 0
-1003.56 -9.0738 0
-1001.81 -8.17782 0
-1000.06 -7.29009 0
-998.295 -6.42105 0
-996.523 -5.5717 0
-994.747 -4.73845 0
-992.97 -3.92394 0
-991.186 -3.1246 0
-989.4 -2.34396 0
-987.609 -1.58488 0
-985.818 -0.839961 0
-984.021 -0.114105 0
-982.22 0.586653 0
-980.415 1.26851 0
-978.61 1.93397 0
-976.799 2.57865 0
-974.993 3.1983 0
-973.179 3.79918 0
-971.364 4.38382 0
-969.55 4.94352 0
-967.731 5.48313 0
-965.915 6.00535 0
-964.095 6.50221 0
-962.275 6.97777 0
-960.456 7.43638 0
-958.636 7.87063 0
-956.817 8.28677 0
-954.997 8.68264 0
-953.179 9.05628 0
-951.362 9.41099 0
-949.542 9.74566 0
-947.725 10.0576 0
-945.912 10.3511 0
-944.097 10.625 0
-942.281 10.8831 0
-940.47 11.1197 0
-938.659 11.3359 0
-936.85 11.5341 0
-935.041 11.7137 0
-933.236 11.8748 0
-931.435 12.0154 0
-929.634 12.1418 0
-927.837 12.2481 0
-926.037 12.3407 0
-924.24 12.4127 0
-922.45 12.469 0
-920.66 12.5102 0
-918.876 12.536 0
-917.093 12.5459 0
-915.311 12.5397 0
-913.532 12.5178 0
-911.757 12.4825 0
-909.982 12.4353 0
-908.212 12.3713 0
-906.446 12.293 0
-904.682 12.2041 0
-902.923 12.1012 0
-901.165 11.9876 0
-899.41 11.8634 0
-897.657 11.7258 0
-895.91 11.5782 0
-894.168 11.4178 0
-892.426 11.2496 0
-890.685 11.0695 0
-888.949 10.8809 0
-887.218 10.6848 0
-885.489 10.4765 0
-883.761 10.2618 0
-882.037 10.0376 0
-880.318 9.80708 0
-878.6 9.56816 0
-876.887 9.32422 0
-875.175 9.07078 0
-873.466 8.8125 0
-871.762 8.55144 0
-870.061 8.28296 0
-868.36 8.0084 0
-866.665 7.73054 0
-864.971 7.44753 0
-863.281 7.15929 0
-861.594 6.86645 0
-859.911 6.57461 0
-858.229 6.27572 0
-856.548 5.97402 0
-854.873 5.67001 0
-853.199 5.36639 0
-851.528 5.06009 0
-849.86 4.75373 0
-848.195 4.44394 0
-846.531 4.1341 0
-844.872 3.82293 0
-843.211 3.51335 0
-841.554 3.20252 0
-839.902 2.89252 0
-838.248 2.58294 0
-836.598 2.27474 0
-834.95 1.96766 0
-833.307 1.66073 0
-831.662 1.35401 0
-830.022 1.05186 0
-828.379 0.751957 0
-826.743 0.453633 0
-825.107 0.157874 0
-823.472 -0.140227 0
-821.839 -0.431874 0
-820.208 -0.72086 0
-818.578 -1.00741 0
-816.95 -1.29091 0
-815.323 -1.56785 0
-813.697 -1.84409 0
-812.07 -2.11609 0
-810.448 -2.38329 0
-808.825 -2.64779 0
-807.204 -2.9087 0
-805.585 -3.16745 0
-803.966 -3.41885 0
-802.347 -3.66759 0
-800.731 -3.90927 0
-799.115 -4.14647 0
-797.5 -4.379 0
-795.884 -4.60683 0
-794.268 -4.82971 0
-792.655 -5.0481 0
-791.043 -5.26186 0
-789.431 -5.46989 0
-787.82 -5.67348 0
-786.208 -5.87052 0
-784.6 -6.06326 0
-782.989 -6.25087 0
-781.38 -6.43358 0
-779.77 -6.60914 0
-778.161 -6.78034 0
-776.553 -6.94715 0
-774.945 -7.10574 0
-773.337 -7.26003 0
-771.727 -7.40855 0
-770.12 -7.55253 0
-768.512 -7.69232 0
-766.904 -7.82209 0
-765.298 -7.95101 0
-763.689 -8.0704 0
-762.081 -8.18487 0
-760.473 -8.29393 0
-758.864 -8.39885 0
-757.257 -8.49817 0
-755.648 -8.58949 0
-754.038 -8.677 0
-752.428 -8.7599 0
-750.819 -8.83723 0
-749.209 -8.9073 0
-747.599 -8.97479 0
-745.987 -9.03595 0
-744.376 -9.09358 0
-742.763 -9.14628 0
-741.152 -9.19202 0
-739.539 -9.2342 0
-737.925 -9.27 0
-736.312 -9.30327 0
-734.698 -9.33018 0
-733.082 -9.35177 0
-731.468 -9.36958 0
-729.853 -9.38191 0
-728.234 -9.39223 0
-726.616 -9.39721 0
-725 -9.39729 0
-723.382 -9.39537 0
-721.762 -9.38621 0
-720.141 -9.37446 0
-718.521 -9.35702 0
-716.903 -9.33707 0
-715.279 -9.31244 0
-713.656 -9.28721 0
-712.033 -9.25542 0
-710.41 -9.22271 0
-708.784 -9.18594 0
-707.159 -9.14408 0
-705.534 -9.09921 0
-703.907 -9.05409 0
-702.28 -9.00167 0
-700.652 -8.94742 0
-699.022 -8.89243 0
-697.393 -8.83192 0
-695.762 -8.7697 0
-694.132 -8.70618 0
-692.499 -8.6396 0
-690.866 -8.57082 0
-689.232 -8.49874 0
-687.597 -8.42623 0
-685.963 -8.3508 0
-684.327 -8.27316 0
-682.692 -8.19272 0
-681.055 -8.11141 0
-679.417 -8.02698 0
-677.78 -7.9428 0
-676.141 -7.85537 0
-674.5 -7.76732 0
-672.861 -7.67765 0
-671.22 -7.58682 0
-669.58 -7.49451 0
-667.937 -7.40089 0
-666.294 -7.3057 0
-664.652 -7.2086 0
-663.008 -7.11413 0
-661.362 -7.01595 0
-659.717 -6.91768 0
-658.071 -6.81647 0
-656.425 -6.71682 0
-654.777 -6.61462 0
-653.131 -6.51386 0
-651.481 -6.41404 0
-649.833 -6.31121 0
-648.183 -6.21043 0
-646.53 -6.10792 0
-644.88 -6.00746 0
-643.231 -5.90441 0
-641.58 -5.80185 0
-639.928 -5.69953 0
-638.275 -5.59577 0
-636.62 -5.49513 0
-634.967 -5.39353 0
-633.312 -5.29129 0
-631.658 -5.18908 0
-630.002 -5.08656 0
-628.344 -4.98663 0
-626.688 -4.88694 0
-625.033 -4.78631 0
-623.377 -4.68727 0
-621.719 -4.58989 0
-620.061 -4.49122 0
-618.402 -4.39649 0
-616.745 -4.29971 0
-615.087 -4.20345 0
-613.428 -4.10873 0
-611.769 -4.01444 0
-610.109 -3.92072 0
-608.45 -3.8273 0
-606.786 -3.73711 0
-605.125 -3.64689 0
-603.464 -3.55872 0
-601.803 -3.47223 0
-600.145 -3.38608 0
-598.483 -3.30072 0
-596.821 -3.21641 0
-595.159 -3.13321 0
-593.496 -3.05139 0
-591.833 -2.97025 0
-590.169 -2.891 0
-588.508 -2.81703 0
-586.844 -2.7389 0
-585.182 -2.66243 0
-583.518 -2.58986 0
-581.855 -2.51644 0
-580.191 -2.44658 0
-578.527 -2.37679 0
-576.865 -2.30867 0
-575.2 -2.24253 0
-573.536 -2.17454 0
-571.871 -2.11169 0
-570.207 -2.05071 0
-568.543 -1.98936 0
-566.879 -1.92957 0
-565.215 -1.87312 0
-563.551 -1.81593 0
-561.886 -1.76061 0
-560.221 -1.70888 0
-558.558 -1.6583 0
-556.893 -1.60538 0
-555.23 -1.55672 0
-553.564 -1.50779 0
-551.899 -1.46204 0
-550.236 -1.4185 0
-548.571 -1.37483 0
-546.909 -1.33351 0
-545.245 -1.29159 0
-543.581 -1.25113 0
-541.917 -1.21366 0
-540.254 -1.17751 0
-538.59 -1.14331 0
-536.926 -1.10757 0
-535.263 -1.07655 0
-533.599 -1.04428 0
-531.938 -1.01513 0
-530.273 -0.986601 0
-528.61 -0.960639 0
-526.947 -0.933409 0
-525.284 -0.909959 0
-523.623 -0.887745 0
-521.96 -0.864989 0
-520.298 -0.845001 0
-518.635 -0.824121 0
-516.974 -0.80627 0
-515.312 -0.789809 0
-513.65 -0.774032 0
-511.988 -0.75892 0
-510.328 -0.744816 0
-508.667 -0.733001 0
-507.007 -0.719944 0
-505.347 -0.70855 0
-503.685 -0.700502 0
-502.024 -0.69158 0
-500.364 -0.684506 0
-498.702 -0.677826 0
-497.043 -0.672488 0
-495.385 -0.666684 0
-493.726 -0.663252 0
-492.065 -0.660071 0
-490.408 -0.66009 0
-488.749 -0.658847 0
-487.09 -0.661423 0
-485.43 -0.661824 0
-483.772 -0.662725 0
-482.116 -0.664003 0
-480.457 -0.66736 0
-478.796 -0.671534 0
-477.14 -0.679814 0
-475.484 -0.682582 0
-473.826 -0.689726 0
-472.167 -0.696272 0
-470.511 -0.703617 0
-468.855 -0.710352 0
-467.198 -0.719675 0
-465.543 -0.727659 0
-463.885 -0.740147 0
-462.229 -0.74998 0
-460.57 -0.76308 0
-458.916 -0.775357 0
-457.261 -0.786537 0
-455.605 -0.797938 0
-453.951 -0.811761 0
-452.296 -0.825234 0
-450.64 -0.838971 0
-448.985 -0.852932 0
-447.333 -0.867524 0
-445.679 -0.881877 0
-444.023 -0.895944 0
-442.369 -0.91123 0
-440.716 -0.928545 0
-439.063 -0.943307 0
-437.412 -0.958202 0
-435.758 -0.977572 0
-434.107 -0.991391 0
-432.453 -1.00841 0
-430.802 -1.02362 0
-429.149 -1.04041 0
-427.497 -1.05889 0
-425.847 -1.07318 0
-424.195 -1.08978 0
-422.544 -1.10842 0
-420.892 -1.12515 0
-419.24 -1.14131 0
-417.591 -1.15775 0
-415.939 -1.17554 0
-414.287 -1.19282 0
-412.638 -1.2089 0
-410.985 -1.22707 0
-409.335 -1.24276 0
-407.685 -1.25816 0
-406.033 -1.27406 0
-404.383 -1.29141 0
-402.73 -1.30809 0
-401.08 -1.32297 0
-399.431 -1.33749 0
-397.782 -1.35188 0
-396.132 -1.36757 0
-394.482 -1.38312 0
-392.833 -1.39874 0
-391.184 -1.4149 0
-389.536 -1.4296 0
-387.885 -1.44359 0
-386.234 -1.45658 0
-384.585 -1.46894 0
-382.938 -1.48347 0
-381.288 -1.49511 0
-379.64 -1.50922 0
-377.992 -1.52015 0
-376.342 -1.53064 0
-374.694 -1.5447 0
-373.045 -1.55615 0
-371.397 -1.56759 0
-369.749 -1.57918 0
-368.1 -1.58909 0
-366.452 -1.59617 0
-364.803 -1.60682 0
-363.155 -1.61676 0
-361.506 -1.6251 0
-359.858 -1.63285 0
-358.21 -1.6418 0
-356.563 -1.64839 0
-354.914 -1.65616 0
-353.267 -1.66293 0
-351.619 -1.66771 0
-349.97 -1.67569 0
-348.323 -1.68004 0
-346.673 -1.68422 0
-345.026 -1.68818 0
-343.377 -1.69514 0
-341.728 -1.69776 0
-340.082 -1.70197 0
-338.436 -1.7059 0
-336.788 -1.70673 0
-335.139 -1.70736 0
-333.49 -1.70967 0
-331.844 -1.71322 0
-330.196 -1.7134 0
-328.546 -1.7126 0
-326.9 -1.71362 0
-325.251 -1.71085 0
-323.604 -1.71222 0
-321.957 -1.71074 0
-320.306 -1.71012 0
-318.658 -1.70756 0
-317.01 -1.70461 0
-315.363 -1.70189 0
-313.715 -1.69894 0
-312.066 -1.69349 0
-310.421 -1.69003 0
-308.773 -1.68583 0
-307.125 -1.67911 0
-305.477 -1.67536 0
-303.83 -1.66821 0
-302.182 -1.66192 0
-300.536 -1.65775 0
-298.89 -1.64876 0
-297.241 -1.64039 0
-295.594 -1.6339 0
-293.945 -1.62251 0
-292.298 -1.61536 0
-290.65 -1.6054 0
-289.003 -1.59676 0
-287.354 -1.58643 0
-285.704 -1.57725 0
-284.055 -1.56583 0
-282.408 -1.55614 0
-280.76 -1.54468 0
-279.112 -1.53051 0
-277.464 -1.51982 0
-275.816 -1.50674 0
-274.167 -1.49472 0
-272.517 -1.48082 0
-270.871 -1.47001 0
-269.223 -1.45542 0
-267.573 -1.43761 0
-265.923 -1.42278 0
-264.277 -1.40876 0
-262.628 -1.39508 0
-260.981 -1.37928 0
-259.331 -1.36387 0
-257.68 -1.34795 0
-256.031 -1.33191 0
-254.383 -1.31413 0
-252.733 -1.29726 0
-251.084 -1.27992 0
-249.433 -1.26213 0
-247.785 -1.24732 0
-246.136 -1.22867 0
-244.487 -1.21043 0
-242.838 -1.19126 0
-241.187 -1.17354 0
-239.537 -1.15247 0
-237.889 -1.13466 0
-236.237 -1.11731 0
-234.59 -1.09829 0
-232.941 -1.07656 0
-231.29 -1.05796 0
-229.641 -1.03812 0
-227.991 -1.01841 0
-226.341 -0.998566 0
-224.693 -0.977648 0
-223.041 -0.956686 0
-221.392 -0.935982 0
-219.74 -0.917373 0
-218.091 -0.895321 0
-216.442 -0.873736 0
-214.792 -0.855017 0
-213.141 -0.831508 0
-211.492 -0.809172 0
-209.841 -0.787492 0
-208.189 -0.763006 0
-206.537 -0.7451 0
-204.889 -0.722918 0
-203.237 -0.701211 0
-201.587 -0.679131 0
-199.937 -0.657676 0
-198.285 -0.639112 0
-196.636 -0.615203 0
-194.985 -0.594111 0
-193.332 -0.57209 0
-191.683 -0.551002 0
-190.031 -0.527944 0
-188.38 -0.507515 0
-186.73 -0.482728 0
-185.077 -0.460191 0
-183.426 -0.437306 0
-181.777 -0.413435 0
-180.125 -0.392401 0
-178.473 -0.370388 0
-176.822 -0.346877 0
-175.171 -0.325935 0
-173.521 -0.302549 0
-171.872 -0.283274 0
-170.218 -0.259996 0
-168.565 -0.239532 0
-166.915 -0.218122 0
-165.262 -0.192301 0
-163.611 -0.170802 0
-161.959 -0.149005 0
-160.306 -0.129127 0
-158.655 -0.106034 0
-157.003 -0.0856545 0
-155.351 -0.0636069 0
-153.699 -0.0410549 0
-152.048 -0.0217234 0
-150.395 -0.00134196 0
-148.742 0.01995 0
-147.092 0.0402972 0
-145.44 0.0625612 0
-143.786 0.08217 0
-142.135 0.102066 0
-140.485 0.121966 0
-138.832 0.142165 0
-137.178 0.16057 0
-135.527 0.17942 0
-133.872 0.199312 0
-132.221 0.220856 0
-130.567 0.236965 0
-128.915 0.258357 0
-127.261 0.276995 0
-125.609 0.294929 0
-123.958 0.311543 0
-122.306 0.329367 0
-120.654 0.348596 0
-119.001 0.365437 0
-117.349 0.384217 0
-115.698 0.403726 0
-114.043 0.419464 0
-112.391 0.44056 0
-110.738 0.454434 0
-109.085 0.470731 0
-107.433 0.486596 0
-105.779 0.502746 0
-104.128 0.517725 0
-102.474 0.532543 0
-100.821 0.547551 0
-99.1682 0.56386 0
-97.5144 0.579199 0
-95.8616 0.594019 0
-94.2111 0.610859 0
-92.5598 0.622696 0
-90.9057 0.637489 0
-89.2536 0.651648 0
-87.6005 0.665323 0
-85.9491 0.680644 0
-84.2958 0.69193 0
-82.643 0.705749 0
-80.9916 0.722677 0
-79.3391 0.733253 0
-77.6867 0.747137 0
-76.0337 0.760144 0
-74.3818 0.769017 0
-72.7284 0.781704 0
-71.077 0.792965 0
-69.4238 0.805925 0
-67.7695 0.817057 0
-66.1146 0.828171 0
-64.4619 0.838493 0
-62.8061 0.849987 0
-61.1545 0.858518 0
-59.5026 0.869496 0
-57.8508 0.879814 0
-56.198 0.886503 0
-54.546 0.896299 0
-52.8925 0.908678 0
-51.241 0.916499 0
-49.5863 0.925192 0
-47.9344 0.932917 0
-46.2802 0.94034 0
-44.6286 0.946324 0
-42.9751 0.955452 0
-41.3212 0.962546 0
-39.6671 0.969768 0
-38.0146 0.973373 0
-36.3615 0.977349 0
-34.7112 0.987645 0
-33.0561 0.993576 0
-31.4034 0.998077 0
-29.7509 1.00092 0
-28.0986 1.00563 0
-26.4453 1.01369 0
-24.7936 1.01876 0
-23.1402 1.02103 0
-21.4874 1.02362 0
-19.8329 1.02654 0
-18.1812 1.02941 0
-16.5305 1.03533 0
-14.8755 1.0359 0
-13.2236 1.03815 0
-11.5701 1.04198 0
-9.91779 1.04333 0
-8.26512 1.04565 0
-6.61042 1.04756 0
-4.96018 1.04935 0
-3.307 1.05067 0
-1.65389 1.05156 0
0 1.05618 0
-1099.03 143.586 0
-1098.97 133.661 0
-1098.9 123.93 0
-1098.81 114.455 0
-1098.7 105.27 0
-1098.6 96.3791 0
-1098.49 87.7841 0
-1098.36 79.4998 0
-1098.21 71.5445 0
-1098.05 63.936 0
-1097.88 56.6822 0
-1097.69 49.782 0
-1097.49 43.2298 0
-1097.27 37.0271 0
-1097.03 31.163 0
-1096.77 25.6238 0
-1096.48 20.3969 0
-1096.17 15.4702 0
-1095.82 10.8254 0
-1095.45 6.44775 0
-1095.04 2.31712 0
-1094.61 -1.57522 0
-1094.14 -5.2412 0
-1093.65 -8.69596 0
-1093.13 -11.9518 0
-1092.59 -15.0182 0
-1092.02 -17.9068 0
-1091.42 -20.6168 0
-1090.8 -23.1621 0
-1090.15 -25.5452 0
-1089.49 -27.7699 0
-1088.8 -29.8493 0
-1088.1 -31.7859 0
-1087.37 -33.5874 0
-1086.62 -35.2537 0
-1085.85 -36.7837 0
-1085.07 -38.1893 0
-1084.26 -39.4712 0
-1083.43 -40.634 0
-1082.58 -41.678 0
-1081.72 -42.6128 0
-1080.83 -43.4324 0
-1079.93 -44.1498 0
-1079 -44.7622 0
-1078.04 -45.2724 0
-1077.08 -45.6896 0
-1076.08 -46.0128 0
-1075.07 -46.2463 0
-1074.04 -46.4026 0
-1072.98 -46.469 0
-1071.9 -46.4585 0
-1070.81 -46.376 0
-1069.69 -46.2138 0
-1068.56 -45.9879 0
-1067.4 -45.694 0
-1066.22 -45.3427 0
-1065.02 -44.9293 0
-1063.81 -44.456 0
-1062.57 -43.9338 0
-1061.31 -43.3626 0
-1060.04 -42.7485 0
-1058.74 -42.085 0
-1057.43 -41.3802 0
-1056.1 -40.6341 0
-1054.75 -39.8562 0
-1053.38 -39.0507 0
-1052 -38.2096 0
-1050.6 -37.3407 0
-1049.18 -36.4432 0
-1047.75 -35.521 0
-1046.3 -34.579 0
-1044.84 -33.6191 0
-1043.36 -32.6427 0
-1041.87 -31.6513 0
-1040.36 -30.6459 0
-1038.84 -29.6235 0
-1037.31 -28.5969 0
-1035.76 -27.5636 0
-1034.2 -26.5246 0
-1032.63 -25.4778 0
-1031.04 -24.428 0
-1029.44 -23.3787 0
-1027.84 -22.3292 0
-1026.22 -21.2794 0
-1024.6 -20.2324 0
-1022.96 -19.1871 0
-1021.31 -18.155 0
-1019.65 -17.1181 0
-1017.99 -16.0915 0
-1016.32 -15.0766 0
-1014.63 -14.0684 0
-1012.95 -13.0717 0
-1011.25 -12.0818 0
-1009.54 -11.1075 0
-1007.83 -10.1453 0
-1006.12 -9.19663 0
-1004.39 -8.25944 0
-1002.66 -7.33799 0
-1000.92 -6.4326 0
-999.181 -5.5443 0
-997.433 -4.66765 0
-995.682 -3.81068 0
-993.925 -2.97232 0
-992.164 -2.15432 0
-990.402 -1.3527 0
-988.632 -0.56766 0
-986.86 0.195346 0
-985.085 0.942628 0
-983.309 1.6718 0
-981.529 2.37701 0
-979.745 3.06298 0
-977.958 3.72847 0
-976.173 4.37279 0
-974.384 4.99641 0
-972.591 5.60012 0
-970.797 6.1841 0
-969.001 6.74784 0
-967.204 7.28863 0
-965.406 7.80764 0
-963.61 8.30871 0
-961.81 8.78406 0
-960.012 9.2421 0
-958.212 9.67773 0
-956.413 10.0932 0
-954.616 10.4887 0
-952.816 10.8626 0
-951.018 11.2166 0
-949.221 11.5497 0
-947.425 11.8624 0
-945.628 12.1539 0
-943.832 12.4281 0
-942.038 12.6829 0
-940.245 12.9191 0
-938.453 13.1343 0
-936.661 13.3309 0
-934.872 13.5094 0
-933.087 13.6665 0
-931.302 13.8082 0
-929.518 13.9305 0
-927.736 14.0372 0
-925.956 14.1264 0
-924.177 14.1971 0
-922.401 14.25 0
-920.629 14.2886 0
-918.857 14.3116 0
-917.09 14.32 0
-915.324 14.3112 0
-913.56 14.2855 0
-911.798 14.2502 0
-910.039 14.1994 0
-908.282 14.1312 0
-906.529 14.0509 0
-904.778 13.9586 0
-903.029 13.8525 0
-901.284 13.7363 0
-899.54 13.61 0
-897.8 13.4694 0
-896.064 13.318 0
-894.329 13.1533 0
-892.598 12.9842 0
-890.869 12.8012 0
-889.143 12.6095 0
-887.418 12.4099 0
-885.698 12.1991 0
-883.98 11.9804 0
-882.264 11.7531 0
-880.551 11.5193 0
-878.841 11.2784 0
-877.134 11.0315 0
-875.429 10.7774 0
-873.726 10.5153 0
-872.028 10.25 0
-870.331 9.97849 0
-868.636 9.70278 0
-866.944 9.42173 0
-865.256 9.13651 0
-863.57 8.84456 0
-861.887 8.54977 0
-860.206 8.25382 0
-858.528 7.95306 0
-856.85 7.64877 0
-855.175 7.34373 0
-853.504 7.03664 0
-851.834 6.72729 0
-850.167 6.41803 0
-848.503 6.10724 0
-846.842 5.79531 0
-845.181 5.48291 0
-843.522 5.17122 0
-841.864 4.85668 0
-840.21 4.54535 0
-838.558 4.23418 0
-836.906 3.92345 0
-835.257 3.61333 0
-833.611 3.30461 0
-831.967 2.9961 0
-830.322 2.69276 0
-828.679 2.39087 0
-827.04 2.09015 0
-825.402 1.79099 0
-823.764 1.49404 0
-822.129 1.20032 0
-820.495 0.911049 0
-818.861 0.621729 0
-817.229 0.338094 0
-815.599 0.0582994 0
-813.968 -0.219503 0
-812.34 -0.49187 0
-810.712 -0.761476 0
-809.088 -1.02673 0
-807.463 -1.28874 0
-805.837 -1.54634 0
-804.214 -1.79975 0
-802.592 -2.04802 0
-800.971 -2.29236 0
-799.349 -2.52936 0
-797.729 -2.76393 0
-796.108 -2.99287 0
-794.489 -3.21549 0
-792.87 -3.4347 0
-791.254 -3.65021 0
-789.636 -3.85831 0
-788.02 -4.06198 0
-786.403 -4.25957 0
-784.788 -4.45416 0
-783.173 -4.64117 0
-781.558 -4.82329 0
-779.943 -5.00035 0
-778.329 -5.17098 0
-776.714 -5.33646 0
-775.102 -5.49738 0
-773.488 -5.65124 0
-771.874 -5.8002 0
-770.26 -5.94559 0
-768.647 -6.08277 0
-767.034 -6.21429 0
-765.42 -6.34252 0
-763.807 -6.46239 0
-762.194 -6.57656 0
-760.58 -6.68672 0
-758.967 -6.79061 0
-757.352 -6.88879 0
-755.737 -6.98096 0
-754.122 -7.06765 0
-752.508 -7.15147 0
-750.891 -7.22735 0
-749.277 -7.29852 0
-747.661 -7.3648 0
-746.045 -7.42536 0
-744.429 -7.4825 0
-742.812 -7.5339 0
-741.195 -7.58062 0
-739.578 -7.6222 0
-737.961 -7.65885 0
-736.342 -7.68966 0
-734.722 -7.71662 0
-733.103 -7.73843 0
-731.483 -7.75523 0
-729.863 -7.7675 0
-728.241 -7.77537 0
-726.62 -7.78076 0
-724.998 -7.78155 0
-723.376 -7.7781 0
-721.752 -7.76725 0
-720.127 -7.7556 0
-718.504 -7.73993 0
-716.879 -7.71859 0
-715.254 -7.69288 0
-713.628 -7.66572 0
-712.001 -7.6344 0
-710.374 -7.59994 0
-708.746 -7.562 0
-707.118 -7.51963 0
-705.487 -7.47511 0
-703.858 -7.42791 0
-702.228 -7.37637 0
-700.596 -7.3218 0
-698.964 -7.26477 0
-697.332 -7.2048 0
-695.699 -7.14128 0
-694.065 -7.07681 0
-692.431 -7.00989 0
-690.796 -6.94046 0
-689.16 -6.86734 0
-687.523 -6.79378 0
-685.886 -6.71724 0
-684.248 -6.63994 0
-682.611 -6.55897 0
-680.973 -6.47652 0
-679.333 -6.39273 0
-677.694 -6.30718 0
-676.054 -6.22073 0
-674.413 -6.13094 0
-672.772 -6.03981 0
-671.131 -5.9476 0
-669.488 -5.85505 0
-667.844 -5.76284 0
-666.2 -5.6664 0
-664.556 -5.56878 0
-662.91 -5.47149 0
-661.265 -5.37394 0
-659.617 -5.27442 0
-657.972 -5.17412 0
-656.325 -5.07317 0
-654.677 -4.9708 0
-653.029 -4.86891 0
-651.379 -4.76805 0
-649.73 -4.66677 0
-648.08 -4.56316 0
-646.429 -4.46007 0
-644.78 -4.35937 0
-643.129 -4.2578 0
-641.477 -4.15446 0
-639.824 -4.04953 0
-638.171 -3.9465 0
-636.519 -3.84446 0
-634.864 -3.74229 0
-633.211 -3.63972 0
-631.557 -3.5375 0
-629.901 -3.43543 0
-628.246 -3.33471 0
-626.59 -3.2345 0
-624.933 -3.134 0
-623.278 -3.03386 0
-621.621 -2.9359 0
-619.964 -2.83676 0
-618.307 -2.74098 0
-616.648 -2.64459 0
-614.991 -2.5479 0
-613.333 -2.45483 0
-611.675 -2.35866 0
-610.016 -2.2647 0
-608.356 -2.17273 0
-606.697 -2.07972 0
-605.037 -1.9895 0
-603.378 -1.90232 0
-601.718 -1.81453 0
-600.057 -1.72913 0
-598.397 -1.64164 0
-596.737 -1.55802 0
-595.075 -1.47588 0
-593.415 -1.39219 0
-591.753 -1.31179 0
-590.093 -1.23197 0
-588.432 -1.15587 0
-586.77 -1.08034 0
-585.107 -1.0025 0
-583.446 -0.928694 0
-581.784 -0.855662 0
-580.122 -0.786173 0
-578.46 -0.716965 0
-576.797 -0.648635 0
-575.134 -0.581228 0
-573.47 -0.515331 0
-571.808 -0.450622 0
-570.146 -0.390297 0
-568.483 -0.328628 0
-566.821 -0.270197 0
-565.159 -0.21167 0
-563.495 -0.155531 0
-561.832 -0.100118 0
-560.17 -0.0479982 0
-558.507 0.00240434 0
-556.844 0.0554509 0
-555.18 0.105228 0
-553.518 0.15286 0
-551.855 0.197871 0
-550.192 0.242696 0
-548.53 0.286347 0
-546.867 0.327721 0
-545.203 0.368698 0
-543.541 0.408962 0
-541.881 0.447343 0
-540.218 0.482176 0
-538.556 0.517548 0
-536.893 0.55232 0
-535.231 0.584415 0
-533.569 0.615569 0
-531.907 0.645611 0
-530.245 0.673387 0
-528.584 0.699796 0
-526.922 0.725404 0
-525.261 0.74941 0
-523.599 0.772449 0
-521.94 0.793998 0
-520.279 0.814407 0
-518.618 0.834669 0
-516.957 0.852074 0
-515.296 0.868881 0
-513.634 0.884915 0
-511.974 0.898594 0
-510.315 0.913144 0
-508.655 0.926738 0
-506.995 0.937758 0
-505.335 0.949017 0
-503.677 0.95867 0
-502.015 0.966234 0
-500.356 0.973101 0
-498.698 0.979876 0
-497.038 0.984573 0
-495.381 0.989004 0
-493.723 0.993 0
-492.063 0.994717 0
-490.407 0.996663 0
-488.749 0.99655 0
-487.09 0.995888 0
-485.433 0.994864 0
-483.774 0.992588 0
-482.118 0.991011 0
-480.461 0.987921 0
-478.802 0.983499 0
-477.144 0.977562 0
-475.487 0.971795 0
-473.831 0.965246 0
-472.175 0.958747 0
-470.519 0.95156 0
-468.863 0.943272 0
-467.207 0.935232 0
-465.552 0.924738 0
-463.896 0.914051 0
-462.24 0.903827 0
-460.584 0.890891 0
-458.928 0.878345 0
-457.274 0.866407 0
-455.618 0.854248 0
-453.963 0.841617 0
-452.309 0.827258 0
-450.654 0.812509 0
-449 0.798896 0
-447.347 0.785 0
-445.693 0.770472 0
-444.04 0.755171 0
-442.387 0.739159 0
-440.734 0.723844 0
-439.081 0.707853 0
-437.428 0.69176 0
-435.776 0.675361 0
-434.122 0.65841 0
-432.471 0.64258 0
-430.819 0.625795 0
-429.166 0.608647 0
-427.514 0.59225 0
-425.863 0.57546 0
-424.211 0.558546 0
-422.559 0.541363 0
-420.907 0.524372 0
-419.257 0.507845 0
-417.606 0.49149 0
-415.954 0.474178 0
-414.304 0.456479 0
-412.653 0.439963 0
-411.002 0.423343 0
-409.35 0.406102 0
-407.701 0.389694 0
-406.049 0.373936 0
-404.398 0.357297 0
-402.747 0.340583 0
-401.097 0.324957 0
-399.447 0.310346 0
-397.796 0.295682 0
-396.148 0.280241 0
-394.497 0.264117 0
-392.847 0.248591 0
-391.199 0.232357 0
-389.548 0.218352 0
-387.899 0.204914 0
-386.248 0.190464 0
-384.6 0.17718 0
-382.95 0.164543 0
-381.301 0.150906 0
-379.652 0.138447 0
-378.002 0.126383 0
-376.353 0.114786 0
-374.705 0.103042 0
-373.056 0.0902265 0
-371.407 0.0788147 0
-369.759 0.0686118 0
-368.109 0.0581654 0
-366.461 0.049301 0
-364.813 0.039937 0
-363.164 0.0290459 0
-361.515 0.0212195 0
-359.866 0.0126865 0
-358.218 0.00385764 0
-356.569 -0.00254484 0
-354.921 -0.0101105 0
-353.273 -0.016917 0
-351.625 -0.022741 0
-349.976 -0.0280707 0
-348.327 -0.0340751 0
-346.678 -0.0388777 0
-345.03 -0.0443436 0
-343.383 -0.0492033 0
-341.734 -0.0515839 0
-340.086 -0.0562568 0
-338.437 -0.0591746 0
-336.789 -0.0607007 0
-335.142 -0.0628037 0
-333.493 -0.0638644 0
-331.844 -0.0661575 0
-330.195 -0.0660692 0
-328.548 -0.067109 0
-326.9 -0.0675477 0
-325.251 -0.0665719 0
-323.602 -0.0657861 0
-321.954 -0.0651415 0
-320.305 -0.0641413 0
-318.656 -0.0619043 0
-317.009 -0.0583157 0
-315.36 -0.0559083 0
-313.711 -0.0523035 0
-312.063 -0.0493298 0
-310.415 -0.0444889 0
-308.767 -0.0397615 0
-307.12 -0.0345168 0
-305.473 -0.0289885 0
-303.825 -0.0240703 0
-302.177 -0.018861 0
-300.53 -0.0106544 0
-298.881 -0.00416006 0
-297.232 0.0032317 0
-295.583 0.0121991 0
-293.936 0.0222173 0
-292.289 0.030803 0
-290.641 0.0391682 0
-288.991 0.0496871 0
-287.343 0.0602674 0
-285.695 0.0705251 0
-284.045 0.0810462 0
-282.398 0.0906506 0
-280.747 0.10263 0
-279.1 0.114625 0
-277.45 0.126181 0
-275.802 0.138381 0
-274.153 0.151745 0
-272.506 0.164436 0
-270.857 0.177172 0
-269.206 0.192264 0
-267.558 0.208003 0
-265.91 0.222215 0
-264.262 0.237417 0
-262.614 0.251698 0
-260.965 0.267309 0
-259.315 0.283352 0
-257.665 0.299207 0
-256.014 0.315314 0
-254.366 0.331459 0
-252.716 0.349367 0
-251.067 0.367388 0
-249.417 0.384421 0
-247.767 0.401353 0
-246.117 0.419359 0
-244.469 0.436138 0
-242.819 0.454975 0
-241.171 0.473688 0
-239.52 0.493549 0
-237.869 0.513075 0
-236.221 0.529875 0
-234.571 0.549099 0
-232.921 0.57001 0
-231.273 0.589674 0
-229.621 0.610114 0
-227.972 0.629802 0
-226.323 0.649947 0
-224.672 0.670742 0
-223.021 0.691083 0
-221.37 0.711707 0
-219.72 0.732392 0
-218.071 0.752636 0
-216.421 0.772558 0
-214.771 0.794153 0
-213.12 0.815827 0
-211.468 0.839784 0
-209.817 0.860616 0
-208.168 0.883295 0
-206.518 0.903706 0
-204.867 0.925318 0
-203.216 0.947941 0
-201.565 0.967785 0
-199.915 0.989721 0
-198.264 1.01041 0
-196.614 1.03218 0
-194.964 1.05525 0
-193.313 1.07702 0
-191.661 1.09847 0
-190.01 1.122 0
-188.358 1.14386 0
-186.706 1.16586 0
-185.055 1.1893 0
-183.404 1.21165 0
-181.753 1.23494 0
-180.104 1.25642 0
-178.453 1.28007 0
-176.802 1.30162 0
-175.149 1.32243 0
-173.499 1.34612 0
-171.848 1.36636 0
-170.196 1.38902 0
-168.544 1.40971 0
-166.892 1.43272 0
-165.239 1.45608 0
-163.588 1.47777 0
-161.937 1.49938 0
-160.284 1.52103 0
-158.632 1.54267 0
-156.981 1.56469 0
-155.331 1.58572 0
-153.679 1.60805 0
-152.027 1.62906 0
-150.374 1.64902 0
-148.721 1.66914 0
-147.07 1.6897 0
-145.419 1.71267 0
-143.767 1.73245 0
-142.115 1.75119 0
-140.463 1.77097 0
-138.811 1.79336 0
-137.159 1.81052 0
-135.505 1.8317 0
-133.855 1.85025 0
-132.2 1.87093 0
-130.549 1.88903 0
-128.896 1.90886 0
-127.244 1.92638 0
-125.592 1.94498 0
-123.94 1.96174 0
-122.287 1.98017 0
-120.637 1.99795 0
-118.984 2.01656 0
-117.332 2.03495 0
-115.679 2.05336 0
-114.027 2.0692 0
-112.375 2.08899 0
-110.722 2.10532 0
-109.069 2.12107 0
-107.417 2.13715 0
-105.764 2.15212 0
-104.112 2.1681 0
-102.459 2.18214 0
-100.805 2.1993 0
-99.155 2.21592 0
-97.5016 2.2282 0
-95.8498 2.24465 0
-94.1978 2.25852 0
-92.545 2.27375 0
-90.8922 2.28808 0
-89.24 2.30326 0
-87.5873 2.3162 0
-85.9362 2.33051 0
-84.2833 2.34392 0
-82.6311 2.35745 0
-80.9777 2.37083 0
-79.3259 2.38474 0
-77.6728 2.39752 0
-76.0209 2.40974 0
-74.3689 2.42168 0
-72.7154 2.43371 0
-71.0633 2.44353 0
-69.4114 2.45535 0
-67.7586 2.46934 0
-66.1057 2.47822 0
-64.4522 2.49077 0
-62.8005 2.50018 0
-61.1455 2.50877 0
-59.4942 2.51965 0
-57.8414 2.528 0
-56.1892 2.53812 0
-54.5358 2.5476 0
-52.8832 2.55866 0
-51.2318 2.56711 0
-49.58 2.57624 0
-47.9273 2.58302 0
-46.2746 2.5912 0
-44.6219 2.59657 0
-42.9681 2.6066 0
-41.3149 2.61431 0
-39.6624 2.6191 0
-38.0107 2.62482 0
-36.3587 2.62938 0
-34.705 2.63745 0
-33.052 2.64467 0
-31.3998 2.64793 0
-29.7458 2.65189 0
-28.094 2.65772 0
-26.4416 2.66297 0
-24.7886 2.66922 0
-23.1373 2.67289 0
-21.4831 2.67424 0
-19.8313 2.67842 0
-18.1785 2.68151 0
-16.5265 2.68551 0
-14.8732 2.68664 0
-13.2213 2.68998 0
-11.5696 2.69312 0
-9.91638 2.69463 0
-8.26188 2.69733 0
-6.61025 2.69827 0
-4.95739 2.69918 0
-3.30563 2.7013 0
-1.65165 2.70127 0
0 2.70358 0
-1109.23 144.011 0
-1108.8 133.935 0
-1108.5 124.227 0
-1108.16 114.779 0
-1107.78 105.603 0
-1107.38 96.7162 0
-1106.97 88.1329 0
-1106.52 79.8683 0
-1106.06 71.9289 0
-1105.56 64.334 0
-1105.05 57.0892 0
-1104.52 50.1973 0
-1103.98 43.6578 0
-1103.42 37.4666 0
-1102.85 31.6145 0
-1102.27 26.089 0
-1101.67 20.8798 0
-1101.06 15.9692 0
-1100.44 11.345 0
-1099.8 6.98603 0
-1099.15 2.87598 0
-1098.48 -0.996184 0
-1097.79 -4.63867 0
-1097.09 -8.07325 0
-1096.36 -11.3069 0
-1095.63 -14.3555 0
-1094.87 -17.2181 0
-1094.1 -19.9114 0
-1093.31 -22.4381 0
-1092.51 -24.8048 0
-1091.69 -27.0168 0
-1090.86 -29.0785 0
-1090.01 -30.9975 0
-1089.14 -32.7785 0
-1088.26 -34.4286 0
-1087.36 -35.9435 0
-1086.45 -37.3316 0
-1085.52 -38.5941 0
-1084.57 -39.7392 0
-1083.61 -40.7669 0
-1082.64 -41.6824 0
-1081.64 -42.487 0
-1080.63 -43.1829 0
-1079.59 -43.774 0
-1078.55 -44.2671 0
-1077.48 -44.6684 0
-1076.4 -44.9722 0
-1075.31 -45.1849 0
-1074.19 -45.3196 0
-1073.05 -45.3693 0
-1071.9 -45.3398 0
-1070.73 -45.2377 0
-1069.54 -45.0574 0
-1068.33 -44.8116 0
-1067.11 -44.5004 0
-1065.88 -44.1269 0
-1064.62 -43.6971 0
-1063.35 -43.2072 0
-1062.06 -42.6687 0
-1060.76 -42.08 0
-1059.43 -41.4455 0
-1058.09 -40.7654 0
-1056.74 -40.0449 0
-1055.37 -39.2818 0
-1053.99 -38.4854 0
-1052.59 -37.6634 0
-1051.17 -36.8106 0
-1049.75 -35.9242 0
-1048.31 -35.0102 0
-1046.85 -34.0758 0
-1045.38 -33.117 0
-1043.9 -32.1441 0
-1042.4 -31.1522 0
-1040.9 -30.1468 0
-1039.37 -29.1284 0
-1037.84 -28.0977 0
-1036.3 -27.0566 0
-1034.74 -26.0107 0
-1033.18 -24.9604 0
-1031.6 -23.9025 0
-1030.01 -22.8393 0
-1028.42 -21.7814 0
-1026.81 -20.7204 0
-1025.2 -19.6625 0
-1023.57 -18.6052 0
-1021.94 -17.5525 0
-1020.3 -16.5067 0
-1018.64 -15.4642 0
-1016.99 -14.4304 0
-1015.32 -13.4047 0
-1013.65 -12.3909 0
-1011.97 -11.3862 0
-1010.28 -10.3891 0
-1008.59 -9.40862 0
-1006.89 -8.44117 0
-1005.19 -7.48477 0
-1003.47 -6.54129 0
-1001.76 -5.61409 0
-1000.04 -4.70291 0
-998.311 -3.80949 0
-996.58 -2.92907 0
-994.845 -2.06931 0
-993.106 -1.22605 0
-991.363 -0.403075 0
-989.616 0.402833 0
-987.867 1.19074 0
-986.111 1.95955 0
-984.356 2.70818 0
-982.598 3.43808 0