<?xml version="1.0"?>
<VTKFile type="StructuredGrid"  version="0.1" byte_order="LittleEndian" compressor="vtkZLibDataCompressor">
  <StructuredGrid WholeExtent="0 700 0 30 0 0">
    <Piece Extent="0 700 0 30 0 0">
      <PointData Vectors="Velocity">
        <DataArray type="Float32" Name="Velocity" NumberOfComponents="3" format="ascii">
-1084.48 53.0427 0
-1084.72 46.7527 0
-1085.02 40.6509 0
-1085.36 34.8643 0
-1085.66 29.4266 0
-1085.89 24.2472 0
-1086.12 19.2642 0
-1086.4 14.5724 0
-1086.68 10.2597 0
-1086.94 6.34112 0
-1087.16 2.80831 0
-1087.34 -0.350602 0
-1087.48 -3.15129 0
-1087.56 -5.61271 0
-1087.57 -7.75924 0
-1087.51 -9.61459 0
-1087.38 -11.2058 0
-1087.16 -12.5569 0
-1086.86 -13.6925 0
-1086.49 -14.6334 0
-1086.04 -15.4003 0
-1085.52 -16.0121 0
-1084.93 -16.4845 0
-1084.27 -16.8337 0
-1083.56 -17.0724 0
-1082.78 -17.213 0
-1081.96 -17.2668 0
-1081.09 -17.2425 0
-1080.17 -17.1491 0
-1079.21 -16.994 0
-1078.2 -16.7838 0
-1077.16 -16.5245 0
-1076.09 -16.2222 0
-1074.97 -15.8813 0
-1073.83 -15.5061 0
-1072.65 -15.101 0
-1071.44 -14.6698 0
-1070.2 -14.2157 0
-1068.93 -13.7417 0
-1067.64 -13.2522 0
-1066.31 -12.7491 0
-1064.96 -12.2354 0
-1063.59 -11.7138 0
-1062.19 -11.1871 0
-1060.77 -10.6574 0
-1059.32 -10.1274 0
-1057.86 -9.59906 0
-1056.37 -9.07337 0
-1054.86 -8.55334 0
-1053.33 -8.04094 0
-1051.79 -7.53681 0
-1050.23 -7.0433 0
-1048.65 -6.56128 0
-1047.06 -6.09181 0
-1045.45 -5.63652 0
-1043.83 -5.19501 0
-1042.2 -4.77002 0
-1040.56 -4.36146 0
-1038.91 -3.97007 0
-1037.24 -3.59624 0
-1035.57 -3.24056 0
-1033.89 -2.90344 0
-1032.2 -2.58557 0
-1030.51 -2.28657 0
-1028.81 -2.00669 0
-1027.1 -1.74623 0
-1025.39 -1.50487 0
-1023.68 -1.2834 0
-1021.96 -1.08137 0
-1020.24 -0.897603 0
-1018.52 -0.73271 0
-1016.8 -0.585875 0
-1015.07 -0.457879 0
-1013.35 -0.347372 0
-1011.62 -0.254341 0
-1009.9 -0.178345 0
-1008.17 -0.11838 0
-1006.45 -0.0745843 0
-1004.73 -0.0457327 0
-1003.01 -0.0324394 0
-1001.29 -0.033179 0
-999.577 -0.0480876 0
-997.863 -0.0755202 0
-996.153 -0.115932 0
-994.447 -0.167602 0
-992.743 -0.230829 0
-991.043 -0.305364 0
-989.346 -0.388831 0
-987.652 -0.481927 0
-985.963 -0.584463 0
-984.278 -0.693987 0
-982.596 -0.811298 0
-980.918 -0.935458 0
-979.245 -1.06561 0
-977.575 -1.20206 0
-975.909 -1.34269 0
-974.248 -1.48709 0
-972.591 -1.63596 0
-970.937 -1.78791 0
-969.287 -1.94235 0
-967.642 -2.09889 0
-966 -2.25697 0
-964.362 -2.41644 0
-962.727 -2.57702 0
-961.096 -2.73618 0
-959.469 -2.89521 0
-957.844 -3.05434 0
-956.224 -3.21133 0
-954.606 -3.3688 0
-952.992 -3.5227 0
-951.38 -3.67463 0
-949.77 -3.82398 0
-948.164 -3.97034 0
-946.56 -4.11273 0
-944.959 -4.25217 0
-943.359 -4.38813 0
-941.761 -4.51958 0
-940.166 -4.64764 0
-938.573 -4.7706 0
-936.981 -4.8893 0
-935.39 -5.0027 0
-933.802 -5.11194 0
-932.214 -5.21712 0
-930.628 -5.31697 0
-929.042 -5.41098 0
-927.458 -5.50053 0
-925.874 -5.58447 0
-924.291 -5.66303 0
-922.709 -5.73617 0
-921.127 -5.80436 0
-919.545 -5.86784 0
-917.963 -5.92606 0
-916.382 -5.97882 0
-914.801 -6.02635 0
-913.219 -6.06922 0
-911.637 -6.10732 0
-910.055 -6.14035 0
-908.473 -6.16823 0
-906.891 -6.19209 0
-905.308 -6.21195 0
-903.725 -6.22629 0
-902.141 -6.23665 0
-900.556 -6.24262 0
-898.971 -6.24522 0
-897.385 -6.2438 0
-895.798 -6.23896 0
-894.21 -6.22928 0
-892.621 -6.2166 0
-891.032 -6.20143 0
-889.442 -6.18238 0
-887.85 -6.16019 0
-886.258 -6.13624 0
-884.664 -6.10903 0
-883.07 -6.07922 0
-881.475 -6.04737 0
-879.878 -6.01297 0
-878.281 -5.97713 0
-876.683 -5.93926 0
-875.083 -5.89802 0
-873.482 -5.85654 0
-871.88 -5.81378 0
-870.277 -5.77018 0
-868.673 -5.72529 0
-867.069 -5.67854 0
-865.463 -5.63204 0
-863.856 -5.58306 0
-862.249 -5.53579 0
-860.641 -5.48695 0
-859.031 -5.43744 0
-857.42 -5.38994 0
-855.808 -5.33964 0
-854.196 -5.28951 0
-852.583 -5.24076 0
-850.969 -5.19228 0
-849.354 -5.1449 0
-847.739 -5.09596 0
-846.124 -5.04862 0
-844.507 -5.00279 0
-842.89 -4.95732 0
-841.272 -4.91161 0
-839.652 -4.86739 0
-838.032 -4.8245 0
-836.413 -4.78122 0
-834.792 -4.74017 0
-833.171 -4.69978 0
-831.55 -4.66172 0
-829.928 -4.62426 0
-828.306 -4.58706 0
-826.682 -4.55266 0
-825.06 -4.51968 0
-823.436 -4.48723 0
-821.813 -4.45665 0
-820.189 -4.42736 0
-818.565 -4.39982 0
-816.941 -4.37259 0
-815.316 -4.34823 0
-813.691 -4.32581 0
-812.067 -4.30298 0
-810.442 -4.28253 0
-808.815 -4.26357 0
-807.191 -4.24667 0
-805.566 -4.23104 0
-803.943 -4.21601 0
-802.318 -4.20285 0
-800.694 -4.18997 0
-799.069 -4.18039 0
-797.444 -4.17215 0
-795.819 -4.16362 0
-794.195 -4.15719 0
-792.57 -4.15352 0
-790.944 -4.1489 0
-789.322 -4.14751 0
-787.698 -4.14712 0
-786.075 -4.14722 0
-784.45 -4.14791 0
-782.827 -4.15151 0
-781.203 -4.15428 0
-779.581 -4.15942 0
-777.958 -4.16542 0
-776.336 -4.17161 0
-774.715 -4.17952 0
-773.094 -4.18728 0
-771.473 -4.1954 0
-769.852 -4.20681 0
-768.231 -4.21714 0
-766.611 -4.22891 0
-764.99 -4.24014 0
-763.369 -4.25348 0
-761.749 -4.26547 0
-760.131 -4.27965 0
-758.513 -4.2947 0
-756.895 -4.31078 0
-755.276 -4.3254 0
-753.658 -4.33943 0
-752.039 -4.35594 0
-750.422 -4.37059 0
-748.805 -4.38764 0
-747.187 -4.40307 0
-745.57 -4.42052 0
-743.954 -4.43678 0
-742.338 -4.45302 0
-740.722 -4.47064 0
-739.107 -4.48726 0
-737.491 -4.50357 0
-735.876 -4.52041 0
-734.261 -4.53719 0
-732.646 -4.55168 0
-731.032 -4.56881 0
-729.417 -4.58726 0
-727.803 -4.60372 0
-726.19 -4.61944 0
-724.575 -4.634 0
-722.961 -4.64937 0
-721.348 -4.66433 0
-719.736 -4.67905 0
-718.123 -4.69457 0
-716.511 -4.70878 0
-714.898 -4.723 0
-713.285 -4.735 0
-711.673 -4.74864 0
-710.061 -4.76124 0
-708.448 -4.77329 0
-706.836 -4.78637 0
-705.225 -4.79701 0
-703.613 -4.80854 0
-702.002 -4.81851 0
-700.389 -4.82841 0
-698.777 -4.83788 0
-697.167 -4.84626 0
-695.556 -4.85636 0
-693.945 -4.86567 0
-692.333 -4.87192 0
-690.721 -4.88026 0
-689.11 -4.88821 0
-687.499 -4.8946 0
-685.887 -4.9001 0
-684.275 -4.90557 0
-682.663 -4.91186 0
-681.052 -4.91627 0
-679.442 -4.92221 0
-677.83 -4.92434 0
-676.219 -4.92709 0
-674.607 -4.93048 0
-672.996 -4.9335 0
-671.384 -4.9358 0
-669.773 -4.93915 0
-668.16 -4.94151 0
-666.548 -4.94434 0
-664.937 -4.94622 0
-663.324 -4.94459 0
-661.714 -4.94465 0
-660.101 -4.9445 0
-658.49 -4.94346 0
-656.877 -4.94342 0
-655.264 -4.94089 0
-653.653 -4.94083 0
-652.041 -4.93938 0
-650.428 -4.93786 0
-648.815 -4.93603 0
-647.202 -4.93346 0
-645.588 -4.93039 0
-643.977 -4.9273 0
-642.364 -4.92549 0
-640.751 -4.92182 0
-639.138 -4.91816 0
-637.525 -4.91402 0
-635.912 -4.91139 0
-634.299 -4.90765 0
-632.686 -4.90223 0
-631.073 -4.89889 0
-629.461 -4.89391 0
-627.847 -4.89064 0
-626.234 -4.88605 0
-624.619 -4.88017 0
-623.004 -4.87589 0
-621.391 -4.871 0
-619.777 -4.86602 0
-618.163 -4.86182 0
-616.55 -4.85732 0
-614.935 -4.85144 0
-613.322 -4.84578 0
-611.707 -4.84035 0
-610.093 -4.83714 0
-608.478 -4.83223 0
-606.864 -4.82756 0
-605.249 -4.82353 0
-603.635 -4.81918 0
-602.02 -4.81286 0
-600.405 -4.80974 0
-598.79 -4.80219 0
-597.174 -4.79858 0
-595.559 -4.79398 0
-593.944 -4.78985 0
-592.33 -4.78486 0
-590.715 -4.78014 0
-589.1 -4.77518 0
-587.486 -4.7717 0
-585.869 -4.76771 0
-584.254 -4.76289 0
-582.638 -4.76011 0
-581.022 -4.75625 0
-579.406 -4.75405 0
-577.791 -4.7511 0
-576.176 -4.7464 0
-574.561 -4.74531 0
-572.946 -4.73962 0
-571.33 -4.73898 0
-569.715 -4.73461 0
-568.101 -4.73384 0
-566.485 -4.73225 0
-564.87 -4.72897 0
-563.255 -4.72462 0
-561.639 -4.72334 0
-560.024 -4.72338 0
-558.408 -4.7205 0
-556.793 -4.72137 0
-555.179 -4.7207 0
-553.563 -4.71675 0
-551.947 -4.71534 0
-550.331 -4.71436 0
-548.716 -4.71442 0
-547.1 -4.71225 0
-545.484 -4.71252 0
-543.869 -4.71108 0
-542.253 -4.71234 0
-540.638 -4.71036 0
-539.021 -4.71277 0
-537.405 -4.71288 0
-535.79 -4.71234 0
-534.176 -4.71296 0
-532.562 -4.71253 0
-530.947 -4.71252 0
-529.331 -4.71394 0
-527.716 -4.71419 0
-526.1 -4.71569 0
-524.484 -4.71494 0
-522.87 -4.71694 0
-521.255 -4.7183 0
-519.639 -4.71754 0
-518.025 -4.72096 0
-516.41 -4.72057 0
-514.794 -4.71995 0
-513.179 -4.72216 0
-511.564 -4.72445 0
-509.951 -4.72681 0
-508.337 -4.72908 0
-506.723 -4.72844 0
-505.107 -4.72931 0
-503.494 -4.73221 0
-501.879 -4.73438 0
-500.264 -4.73634 0
-498.65 -4.73512 0
-497.034 -4.73611 0
-495.419 -4.73701 0
-493.804 -4.73749 0
-492.191 -4.742 0
-490.575 -4.74327 0
-488.961 -4.74489 0
-487.345 -4.74661 0
-485.733 -4.75015 0
-484.119 -4.75159 0
-482.505 -4.75308 0
-480.889 -4.75441 0
-479.275 -4.75505 0
-477.661 -4.76141 0
-476.048 -4.76081 0
-474.433 -4.76353 0
-472.818 -4.76414 0
-471.205 -4.76709 0
-469.59 -4.7676 0
-467.975 -4.7697 0
-466.362 -4.77191 0
-464.747 -4.77331 0
-463.133 -4.77656 0
-461.519 -4.77844 0
-459.905 -4.77598 0
-458.292 -4.77883 0
-456.677 -4.77978 0
-455.061 -4.78157 0
-453.447 -4.78534 0
-451.834 -4.7883 0
-450.221 -4.78745 0
-448.606 -4.78761 0
-446.992 -4.78909 0
-445.377 -4.78842 0
-443.765 -4.78872 0
-442.152 -4.79116 0
-440.539 -4.79458 0
-438.924 -4.79594 0
-437.311 -4.7978 0
-435.699 -4.79981 0
-434.082 -4.80048 0
-432.468 -4.80013 0
-430.854 -4.80098 0
-429.242 -4.80045 0
-427.627 -4.80102 0
-426.014 -4.79975 0
-424.4 -4.80036 0
-422.786 -4.8031 0
-421.172 -4.80313 0
-419.558 -4.80383 0
-417.944 -4.80474 0
-416.328 -4.80759 0
-414.715 -4.80613 0
-413.102 -4.80646 0
-411.488 -4.80734 0
-409.875 -4.80905 0
-408.261 -4.80989 0
-406.647 -4.80686 0
-405.033 -4.80789 0
-403.42 -4.80933 0
-401.808 -4.80932 0
-400.194 -4.80708 0
-398.578 -4.80827 0
-396.963 -4.80705 0
-395.349 -4.80636 0
-393.737 -4.80655 0
-392.125 -4.80393 0
-390.509 -4.80481 0
-388.896 -4.80472 0
-387.282 -4.80449 0
-385.665 -4.80436 0
-384.05 -4.80521 0
-382.439 -4.80413 0
-380.825 -4.80307 0
-379.211 -4.80364 0
-377.596 -4.80344 0
-375.985 -4.80202 0
-374.372 -4.80281 0
-372.757 -4.80189 0
-371.142 -4.80102 0
-369.527 -4.80092 0
-367.915 -4.79869 0
-366.299 -4.79578 0
-364.684 -4.79565 0
-363.068 -4.79509 0
-361.456 -4.79262 0
-359.844 -4.79247 0
-358.23 -4.79428 0
-356.615 -4.79482 0
-355.001 -4.79516 0
-353.388 -4.79353 0
-351.776 -4.79141 0
-350.161 -4.78822 0
-348.545 -4.78881 0
-346.931 -4.78804 0
-345.318 -4.78783 0
-343.704 -4.78754 0
-342.09 -4.7833 0
-340.474 -4.78572 0
-338.859 -4.78739 0
-337.248 -4.78692 0
-335.636 -4.78606 0
-334.02 -4.78143 0
-332.404 -4.78558 0
-330.792 -4.78384 0
-329.176 -4.78445 0
-327.563 -4.7834 0
-325.95 -4.78184 0
-324.336 -4.78205 0
-322.722 -4.78149 0
-321.108 -4.78151 0
-319.497 -4.77997 0
-317.883 -4.77919 0
-316.267 -4.77678 0
-314.652 -4.77559 0
-313.037 -4.77912 0
-311.422 -4.77657 0
-309.808 -4.7757 0
-308.195 -4.77774 0
-306.582 -4.77708 0
-304.968 -4.77681 0
-303.356 -4.77616 0
-301.739 -4.776 0
-300.126 -4.77642 0
-298.512 -4.77381 0
-296.9 -4.77477 0
-295.284 -4.77185 0
-293.672 -4.77154 0
-292.057 -4.77017 0
-290.444 -4.77164 0
-288.832 -4.77316 0
-287.217 -4.77264 0
-285.602 -4.7732 0
-283.988 -4.77194 0
-282.376 -4.7723 0
-280.761 -4.77391 0
-279.148 -4.77217 0
-277.535 -4.7721 0
-275.92 -4.77142 0
-274.306 -4.7735 0
-272.692 -4.77436 0
-271.078 -4.77374 0
-269.463 -4.7735 0
-267.85 -4.77175 0
-266.237 -4.77253 0
-264.622 -4.76957 0
-263.006 -4.77128 0
-261.392 -4.76901 0
-259.779 -4.7707 0
-258.165 -4.77097 0
-256.553 -4.77179 0
-254.939 -4.76882 0
-253.325 -4.7726 0
-251.711 -4.76923 0
-250.096 -4.76632 0
-248.483 -4.76736 0
-246.87 -4.76563 0
-245.256 -4.76668 0
-243.641 -4.76633 0
-242.027 -4.76731 0
-240.414 -4.76819 0
-238.8 -4.77012 0
-237.187 -4.76729 0
-235.571 -4.76763 0
-233.955 -4.76919 0
-232.342 -4.76792 0
-230.728 -4.7682 0
-229.115 -4.76795 0
-227.497 -4.76703 0
-225.884 -4.76683 0
-224.271 -4.76789 0
-222.658 -4.76902 0
-221.044 -4.76698 0
-219.431 -4.76833 0
-217.816 -4.76566 0
-216.203 -4.76814 0
-214.59 -4.77077 0
-212.976 -4.76823 0
-211.363 -4.76834 0
-209.751 -4.76974 0
-208.136 -4.76963 0
-206.523 -4.76952 0
-204.91 -4.76939 0
-203.295 -4.76895 0
-201.685 -4.76878 0
-200.07 -4.76871 0
-198.454 -4.76982 0
-196.839 -4.77001 0
-195.227 -4.76915 0
-193.611 -4.7673 0
-191.997 -4.76923 0
-190.385 -4.76767 0
-188.77 -4.7706 0
-187.155 -4.76923 0
-185.541 -4.77147 0
-183.929 -4.77054 0
-182.316 -4.77044 0
-180.702 -4.76976 0
-179.09 -4.76857 0
-177.474 -4.76892 0
-175.861 -4.76815 0
-174.248 -4.76908 0
-172.635 -4.767 0
-171.021 -4.77079 0
-169.407 -4.76842 0
-167.793 -4.76911 0
-166.181 -4.76817 0
-164.567 -4.76912 0
-162.953 -4.76968 0
-161.337 -4.76936 0
-159.726 -4.77167 0
-158.112 -4.77342 0
-156.498 -4.77196 0
-154.885 -4.76996 0
-153.27 -4.77057 0
-151.657 -4.77103 0
-150.043 -4.77317 0
-148.428 -4.77096 0
-146.817 -4.77321 0
-145.205 -4.77419 0
-143.592 -4.77393 0
-141.979 -4.77131 0
-140.366 -4.77257 0
-138.754 -4.77297 0
-137.14 -4.77359 0
-135.526 -4.77361 0
-133.912 -4.77342 0
-132.297 -4.77387 0
-130.682 -4.77526 0
-129.069 -4.77451 0
-127.455 -4.77498 0
-125.842 -4.77535 0
-124.228 -4.77742 0
-122.615 -4.77555 0
-121.001 -4.77322 0
-119.387 -4.77405 0
-117.774 -4.77543 0
-116.161 -4.77572 0
-114.548 -4.77563 0
-112.936 -4.7756 0
-111.323 -4.77598 0
-109.708 -4.77484 0
-108.095 -4.77566 0
-106.481 -4.7761 0
-104.868 -4.77413 0
-103.253 -4.77556 0
-101.64 -4.77413 0
-100.025 -4.77551 0
-98.4125 -4.77464 0
-96.7988 -4.7744 0
-95.1837 -4.77667 0
-93.5719 -4.77727 0
-91.9578 -4.77658 0
-90.3446 -4.77748 0
-88.7323 -4.77706 0
-87.1183 -4.77513 0
-85.505 -4.77391 0
-83.8913 -4.77561 0
-82.2762 -4.77573 0
-80.6629 -4.77496 0
-79.0519 -4.77491 0
-77.4375 -4.77501 0
-75.8238 -4.77602 0
-74.2113 -4.77585 0
-72.598 -4.77798 0
-70.9855 -4.77717 0
-69.3714 -4.77452 0
-67.758 -4.77564 0
-66.1452 -4.7765 0
-64.532 -4.77742 0
-62.9165 -4.77591 0
-61.3046 -4.77624 0
-59.6913 -4.77594 0
-58.0777 -4.77547 0
-56.4644 -4.77499 0
-54.8491 -4.77422 0
-53.2383 -4.77425 0
-51.6256 -4.77333 0
-50.0131 -4.7737 0
-48.3992 -4.77551 0
-46.7848 -4.77546 0
-45.1709 -4.7757 0
-43.5594 -4.77452 0
-41.9469 -4.77471 0
-40.3334 -4.77091 0
-38.7194 -4.77353 0
-37.1069 -4.77291 0
-35.492 -4.77202 0
-33.8786 -4.77415 0
-32.2649 -4.77359 0
-30.6534 -4.77258 0
-29.0408 -4.77429 0
-27.4277 -4.77386 0
-25.8135 -4.77522 0
-24.2017 -4.77465 0
-22.5869 -4.77466 0
-20.9737 -4.77508 0
-19.3606 -4.77233 0
-17.7473 -4.77345 0
-16.1322 -4.77526 0
-14.5202 -4.77368 0
-12.9059 -4.77181 0
-11.2918 -4.77162 0
-9.67823 -4.77262 0
-8.06512 -4.77073 0
-6.45167 -4.77127 0
-4.83729 -4.77351 0
-3.2259 -4.77189 0
-1.61233 -4.7714 0
0 -4.77257 0
-1090.77 53.3233 0
-1090.85 46.9717 0
-1090.91 40.8411 0
-1090.92 35.0347 0
-1090.92 29.5811 0
-1090.98 24.3924 0
-1091.01 19.4025 0
-1090.95 14.703 0
-1090.85 10.3821 0
-1090.72 6.45996 0
-1090.56 2.9305 0
-1090.38 -0.216335 0
-1090.16 -2.995 0
-1089.91 -5.42397 0
-1089.62 -7.52814 0
-1089.27 -9.33389 0
-1088.88 -10.8694 0
-1088.43 -12.1616 0
-1087.92 -13.2365 0
-1087.36 -14.1167 0
-1086.74 -14.8239 0
-1086.07 -15.3779 0
-1085.35 -15.7952 0
-1084.57 -16.0914 0
-1083.75 -16.2804 0
-1082.89 -16.3738 0
-1081.98 -16.383 0
-1081.03 -16.3171 0
-1080.05 -16.1839 0
-1079.03 -15.9913 0
-1077.97 -15.7455 0
-1076.89 -15.4525 0
-1075.77 -15.1173 0
-1074.62 -14.745 0
-1073.44 -14.3396 0
-1072.24 -13.9052 0
-1071 -13.4457 0
-1069.74 -12.9642 0
-1068.46 -12.4638 0
-1067.15 -11.9481 0
-1065.81 -11.4199 0
-1064.46 -10.8822 0
-1063.08 -10.3377 0
-1061.67 -9.78807 0
-1060.25 -9.23705 0
-1058.8 -8.68616 0
-1057.34 -8.13774 0
-1055.86 -7.59325 0
-1054.36 -7.05548 0
-1052.84 -6.52571 0
-1051.3 -6.00543 0
-1049.75 -5.49632 0
-1048.19 -4.9996 0
-1046.61 -4.51643 0
-1045.02 -4.04813 0
-1043.41 -3.59545 0
-1041.8 -3.15912 0
-1040.17 -2.7407 0
-1038.53 -2.33919 0
-1036.89 -1.95668 0
-1035.24 -1.59294 0
-1033.57 -1.24879 0
-1031.9 -0.924287 0
-1030.23 -0.619509 0
-1028.55 -0.334405 0
-1026.86 -0.0696476 0
-1025.17 0.175612 0
-1023.48 0.400337 0
-1021.78 0.605998 0
-1020.08 0.791704 0
-1018.37 0.958416 0
-1016.67 1.10616 0
-1014.96 1.23557 0
-1013.25 1.34624 0
-1011.54 1.439 0
-1009.84 1.51504 0
-1008.13 1.57397 0
-1006.42 1.6168 0
-1004.71 1.64364 0
-1003.01 1.65555 0
-1001.3 1.65281 0
-999.6 1.63598 0
-997.899 1.60614 0
-996.201 1.56314 0
-994.506 1.5078 0
-992.813 1.44192 0
-991.123 1.36459 0
-989.435 1.27773 0
-987.751 1.18123 0
-986.069 1.07554 0
-984.391 0.961938 0
-982.716 0.840795 0
-981.045 0.713435 0
-979.377 0.579435 0
-977.712 0.439869 0
-976.051 0.295402 0
-974.393 0.146762 0
-972.739 -0.00550543 0
-971.089 -0.161018 0
-969.442 -0.31909 0
-967.797 -0.479143 0
-966.156 -0.640664 0
-964.519 -0.804026 0
-962.885 -0.966761 0
-961.254 -1.1296 0
-959.625 -1.2922 0
-958 -1.45405 0
-956.378 -1.61443 0
-954.759 -1.77379 0
-953.142 -1.9308 0
-951.528 -2.08503 0
-949.916 -2.23702 0
-948.306 -2.38585 0
-946.699 -2.53036 0
-945.094 -2.6717 0
-943.49 -2.80994 0
-941.889 -2.94345 0
-940.29 -3.07315 0
-938.692 -3.19762 0
-937.095 -3.31771 0
-935.5 -3.43309 0
-933.907 -3.54378 0
-932.314 -3.64905 0
-930.723 -3.74993 0
-929.132 -3.84517 0
-927.543 -3.93534 0
-925.954 -4.02001 0
-924.365 -4.09957 0
-922.778 -4.17294 0
-921.191 -4.24137 0
-919.604 -4.3053 0
-918.018 -4.36355 0
-916.431 -4.41631 0
-914.845 -4.46389 0
-913.258 -4.50688 0
-911.671 -4.545 0
-910.085 -4.57782 0
-908.499 -4.6056 0
-906.911 -4.62913 0
-905.324 -4.6475 0
-903.737 -4.66197 0
-902.148 -4.67161 0
-900.56 -4.6772 0
-898.971 -4.67936 0
-897.381 -4.67707 0
-895.79 -4.67121 0
-894.2 -4.66121 0
-892.608 -4.64751 0
-891.015 -4.63125 0
-889.422 -4.61122 0
-887.828 -4.5888 0
-886.232 -4.56348 0
-884.636 -4.53473 0
-883.04 -4.50458 0
-881.442 -4.47183 0
-879.844 -4.43647 0
-878.244 -4.39962 0
-876.644 -4.36039 0
-875.042 -4.31911 0
-873.44 -4.27597 0
-871.838 -4.23288 0
-870.234 -4.18818 0
-868.629 -4.14185 0
-867.023 -4.09466 0
-865.417 -4.04657 0
-863.809 -3.99812 0
-862.201 -3.94877 0
-860.592 -3.89952 0
-858.982 -3.8495 0
-857.372 -3.79961 0
-855.759 -3.74929 0
-854.147 -3.69904 0
-852.534 -3.64972 0
-850.921 -3.59996 0
-849.307 -3.55115 0
-847.692 -3.50291 0
-846.077 -3.4542 0
-844.461 -3.40738 0
-842.845 -3.36079 0
-841.228 -3.31512 0
-839.609 -3.2702 0
-837.99 -3.22657 0
-836.371 -3.18327 0
-834.752 -3.14172 0
-833.133 -3.1017 0
-831.512 -3.06227 0
-829.892 -3.02423 0
-828.271 -2.98781 0
-826.65 -2.95268 0
-825.027 -2.91922 0
-823.406 -2.88649 0
-821.784 -2.85507 0
-820.161 -2.82613 0
-818.538 -2.79843 0
-816.916 -2.77144 0
-815.293 -2.74591 0
-813.669 -2.72301 0
-812.046 -2.70043 0
-810.422 -2.67961 0
-808.799 -2.66107 0
-807.175 -2.64436 0
-805.552 -2.62844 0
-803.929 -2.61441 0
-802.305 -2.60107 0
-800.682 -2.58837 0
-799.059 -2.57774 0
-797.436 -2.56924 0
-795.813 -2.56101 0
-794.189 -2.55549 0
-792.566 -2.55115 0
-790.943 -2.54779 0
-789.32 -2.54585 0
-787.698 -2.54584 0
-786.074 -2.54562 0
-784.452 -2.54734 0
-782.83 -2.55032 0
-781.208 -2.55386 0
-779.587 -2.55871 0
-777.965 -2.56529 0
-776.344 -2.57258 0
-774.723 -2.57989 0
-773.102 -2.58731 0
-771.482 -2.5973 0
-769.861 -2.60793 0
-768.241 -2.61855 0
-766.62 -2.62992 0
-765.002 -2.6425 0
-763.382 -2.65531 0
-761.763 -2.66937 0
-760.145 -2.68345 0
-758.527 -2.69812 0
-756.908 -2.71358 0
-755.291 -2.72848 0
-753.672 -2.74378 0
-752.055 -2.75974 0
-750.438 -2.776 0
-748.821 -2.79132 0
-747.204 -2.8085 0
-745.587 -2.82526 0
-743.97 -2.84243 0
-742.354 -2.85893 0
-740.738 -2.87658 0
-739.123 -2.89385 0
-737.508 -2.91041 0
-735.893 -2.9267 0
-734.277 -2.94363 0
-732.663 -2.9599 0
-731.048 -2.97699 0
-729.434 -2.99463 0
-727.82 -3.01113 0
-726.205 -3.02666 0
-724.59 -3.04262 0
-722.976 -3.05764 0
-721.363 -3.07283 0
-719.75 -3.0879 0
-718.138 -3.10263 0
-716.525 -3.11734 0
-714.912 -3.13083 0
-713.298 -3.14352 0
-711.685 -3.15783 0
-710.072 -3.17067 0
-708.461 -3.18318 0
-706.848 -3.19495 0
-705.236 -3.20712 0
-703.624 -3.21802 0
-702.012 -3.22879 0
-700.399 -3.23882 0
-698.787 -3.24867 0
-697.176 -3.25753 0
-695.565 -3.2665 0
-693.952 -3.2748 0
-692.34 -3.28276 0
-690.728 -3.29039 0
-689.117 -3.2984 0
-687.504 -3.30498 0
-685.893 -3.31018 0
-684.281 -3.31628 0
-682.669 -3.32158 0
-681.057 -3.32629 0
-679.444 -3.33126 0
-677.833 -3.33486 0
-676.222 -3.33757 0
-674.61 -3.34051 0
-672.997 -3.34355 0
-671.387 -3.34546 0
-669.774 -3.34863 0
-668.162 -3.35078 0
-666.55 -3.35366 0
-664.937 -3.35534 0
-663.325 -3.35425 0
-661.713 -3.35499 0
-660.101 -3.35341 0
-658.488 -3.35353 0
-656.876 -3.35258 0
-655.265 -3.3508 0
-653.652 -3.34991 0
-652.039 -3.34885 0
-650.427 -3.34656 0
-648.814 -3.34382 0
-647.2 -3.34196 0
-645.586 -3.33903 0
-643.973 -3.33628 0
-642.361 -3.33314 0
-640.748 -3.32985 0
-639.135 -3.32652 0
-637.522 -3.32273 0
-635.909 -3.31965 0
-634.296 -3.31472 0
-632.681 -3.31174 0
-631.068 -3.30755 0
-629.455 -3.30256 0
-627.842 -3.29796 0
-626.228 -3.29318 0
-624.614 -3.28801 0
-623.001 -3.2829 0
-621.386 -3.27858 0
-619.773 -3.27378 0
-618.158 -3.26967 0
-616.544 -3.26521 0
-614.93 -3.25909 0
-613.316 -3.25272 0
-611.702 -3.2488 0
-610.088 -3.24433 0
-608.473 -3.23986 0
-606.859 -3.23426 0
-605.244 -3.23076 0
-603.629 -3.22538 0
-602.015 -3.22051 0
-600.4 -3.21615 0
-598.785 -3.20984 0
-597.17 -3.20432 0
-595.554 -3.2007 0
-593.939 -3.19592 0
-592.325 -3.1921 0
-590.711 -3.18728 0
-589.095 -3.18229 0
-587.479 -3.17689 0
-585.865 -3.17413 0
-584.25 -3.16886 0
-582.635 -3.16539 0
-581.019 -3.16293 0
-579.403 -3.16075 0
-577.788 -3.15691 0
-576.174 -3.15408 0
-574.558 -3.1502 0
-572.942 -3.14631 0
-571.327 -3.14403 0
-569.712 -3.14169 0
-568.097 -3.14077 0
-566.482 -3.13813 0
-564.867 -3.1345 0
-563.252 -3.13144 0
-561.637 -3.12975 0
-560.022 -3.13021 0
-558.407 -3.1275 0
-556.792 -3.12867 0
-555.177 -3.12644 0
-553.561 -3.12287 0
-551.946 -3.12281 0
-550.331 -3.12159 0
-548.716 -3.12048 0
-547.099 -3.11893 0
-545.484 -3.11817 0
-543.868 -3.11821 0
-542.253 -3.1182 0
-540.637 -3.11723 0
-539.022 -3.11903 0
-537.406 -3.11953 0
-535.791 -3.11846 0
-534.176 -3.11944 0
-532.562 -3.11993 0
-530.947 -3.11946 0
-529.332 -3.1207 0
-527.716 -3.12049 0
-526.1 -3.12232 0
-524.485 -3.12125 0
-522.871 -3.12334 0
-521.255 -3.12439 0
-519.641 -3.12537 0
-518.027 -3.12734 0
-516.41 -3.12699 0
-514.797 -3.1273 0
-513.181 -3.12959 0
-511.567 -3.13101 0
-509.953 -3.13425 0
-508.338 -3.13539 0
-506.722 -3.13547 0
-505.109 -3.13672 0
-503.494 -3.1399 0
-501.879 -3.14253 0
-500.264 -3.14237 0
-498.649 -3.14321 0
-497.035 -3.1442 0
-495.421 -3.14449 0
-493.806 -3.14585 0
-492.192 -3.14983 0
-490.576 -3.15061 0
-488.962 -3.15148 0
-487.349 -3.15529 0
-485.734 -3.15667 0
-484.12 -3.15863 0
-482.505 -3.16002 0
-480.892 -3.16158 0
-479.278 -3.16304 0
-477.664 -3.16724 0
-476.05 -3.16772 0
-474.435 -3.16982 0
-472.82 -3.17233 0
-471.206 -3.17328 0
-469.591 -3.1766 0
-467.978 -3.17746 0
-466.363 -3.17971 0
-464.75 -3.18072 0
-463.135 -3.18347 0
-461.52 -3.18572 0
-459.906 -3.18536 0
-458.293 -3.18637 0
-456.678 -3.18647 0
-455.064 -3.18931 0
-453.451 -3.19291 0
-451.836 -3.19502 0
-450.222 -3.19333 0
-448.608 -3.19568 0
-446.994 -3.19576 0
-445.38 -3.19708 0
-443.766 -3.19823 0
-442.153 -3.19946 0
-440.54 -3.20198 0
-438.926 -3.20341 0
-437.312 -3.20554 0
-435.698 -3.20665 0
-434.084 -3.2073 0
-432.469 -3.20769 0
-430.856 -3.2088 0
-429.241 -3.2087 0
-427.628 -3.20839 0
-426.015 -3.20793 0
-424.4 -3.20938 0
-422.788 -3.20951 0
-421.172 -3.21163 0
-419.559 -3.2117 0
-417.946 -3.212 0
-416.331 -3.21253 0
-414.716 -3.21349 0
-413.102 -3.21572 0
-411.489 -3.21473 0
-409.875 -3.21591 0
-408.26 -3.21618 0
-406.648 -3.21582 0
-405.032 -3.21586 0
-403.42 -3.21584 0
-401.806 -3.2165 0
-400.193 -3.21576 0
-398.579 -3.21392 0
-396.964 -3.21588 0
-395.351 -3.21548 0
-393.736 -3.21359 0
-392.123 -3.21344 0
-390.509 -3.21106 0
-388.895 -3.2142 0
-387.28 -3.2124 0
-385.666 -3.21151 0
-384.051 -3.2124 0
-382.437 -3.21223 0
-380.824 -3.21086 0
-379.21 -3.21163 0
-377.598 -3.21152 0
-375.985 -3.21025 0
-374.371 -3.20859 0
-372.757 -3.20888 0
-371.142 -3.21004 0
-369.527 -3.209 0
-367.913 -3.20709 0
-366.299 -3.20555 0
-364.684 -3.20232 0
-363.069 -3.20215 0
-361.455 -3.20185 0
-359.843 -3.20177 0
-358.23 -3.20338 0
-356.616 -3.20154 0
-355.002 -3.20275 0
-353.387 -3.20145 0
-351.773 -3.2012 0
-350.158 -3.19648 0
-348.544 -3.19761 0
-346.93 -3.19547 0
-345.316 -3.1963 0
-343.704 -3.19394 0
-342.089 -3.19062 0
-340.474 -3.1928 0
-338.859 -3.19453 0
-337.249 -3.19526 0
-335.634 -3.19308 0
-334.02 -3.19087 0
-332.405 -3.19136 0
-330.79 -3.19353 0
-329.178 -3.1914 0
-327.564 -3.19164 0
-325.95 -3.18989 0
-324.335 -3.18965 0
-322.721 -3.18979 0
-321.108 -3.18879 0
-319.495 -3.18905 0
-317.881 -3.186 0
-316.267 -3.1853 0
-314.653 -3.18399 0
-313.038 -3.1855 0
-311.422 -3.18361 0
-309.81 -3.18448 0
-308.196 -3.1849 0
-306.581 -3.18353 0
-304.967 -3.1853 0
-303.355 -3.18324 0
-301.741 -3.1828 0
-300.125 -3.18344 0
-298.512 -3.18272 0
-296.898 -3.18211 0
-295.285 -3.18066 0
-293.671 -3.17874 0
-292.058 -3.17855 0
-290.444 -3.1796 0
-288.83 -3.17999 0
-287.215 -3.18067 0
-285.602 -3.17875 0
-283.989 -3.17879 0
-282.375 -3.17916 0
-280.761 -3.18058 0
-279.148 -3.18095 0
-277.535 -3.17863 0
-275.92 -3.17933 0
-274.306 -3.18041 0
-272.692 -3.18033 0
-271.077 -3.18196 0
-269.463 -3.18084 0
-267.849 -3.18015 0
-266.236 -3.17925 0
-264.621 -3.17795 0
-263.007 -3.17824 0
-261.392 -3.17686 0
-259.778 -3.17836 0
-258.166 -3.18086 0
-256.552 -3.1798 0
-254.938 -3.17789 0
-253.325 -3.17851 0
-251.71 -3.17732 0
-250.095 -3.17405 0
-248.482 -3.17412 0
-246.87 -3.1749 0
-245.256 -3.17456 0
-243.641 -3.17442 0
-242.028 -3.17472 0
-240.414 -3.17644 0
-238.798 -3.17668 0
-237.184 -3.17594 0
-235.571 -3.1755 0
-233.955 -3.17571 0
-232.341 -3.17717 0
-230.726 -3.17705 0
-229.113 -3.17491 0
-227.5 -3.1742 0
-225.886 -3.1743 0
-224.273 -3.17556 0
-222.659 -3.17742 0
-221.046 -3.17662 0
-219.43 -3.17631 0
-217.817 -3.17365 0
-216.203 -3.17716 0
-214.59 -3.1782 0
-212.974 -3.17591 0
-211.363 -3.17724 0
-209.748 -3.17926 0
-208.136 -3.17764 0
-206.522 -3.1782 0
-204.908 -3.1764 0
-203.295 -3.17743 0
-201.684 -3.1774 0
-200.07 -3.17543 0
-198.454 -3.17692 0
-196.841 -3.177 0
-195.226 -3.17842 0
-193.611 -3.17755 0
-191.999 -3.17601 0
-190.385 -3.17698 0
-188.771 -3.17529 0
-187.157 -3.1793 0
-185.544 -3.17906 0
-183.929 -3.17909 0
-182.315 -3.18003 0
-180.7 -3.1781 0
-179.088 -3.17731 0
-177.475 -3.17746 0
-175.862 -3.17661 0
-174.248 -3.17714 0
-172.633 -3.17746 0
-171.021 -3.17749 0
-169.406 -3.17738 0
-167.793 -3.17727 0
-166.179 -3.17698 0
-164.565 -3.17776 0
-162.951 -3.17767 0
-161.338 -3.1795 0
-159.724 -3.18121 0
-158.111 -3.18082 0
-156.497 -3.1814 0
-154.885 -3.18059 0
-153.27 -3.17824 0
-151.657 -3.17823 0
-150.044 -3.17949 0
-148.431 -3.18019 0
-146.818 -3.18107 0
-145.204 -3.18251 0
-143.591 -3.18216 0
-141.978 -3.17973 0
-140.365 -3.18078 0
-138.753 -3.18096 0
-137.139 -3.1802 0
-135.525 -3.1801 0
-133.912 -3.17899 0
-132.298 -3.18106 0
-130.683 -3.183 0
-129.069 -3.18166 0
-127.457 -3.18289 0
-125.843 -3.18314 0
-124.229 -3.18367 0
-122.615 -3.18336 0
-121.001 -3.18262 0
-119.389 -3.18196 0
-117.775 -3.18254 0
-116.162 -3.18429 0
-114.549 -3.18463 0
-112.935 -3.18318 0
-111.321 -3.18426 0
-109.708 -3.18312 0
-108.093 -3.18272 0
-106.481 -3.18265 0
-104.867 -3.18284 0
-103.254 -3.18234 0
-101.639 -3.18281 0
-100.027 -3.18225 0
-98.4135 -3.1836 0
-96.7998 -3.18259 0
-95.1858 -3.18416 0
-93.5716 -3.18694 0
-91.9578 -3.18675 0
-90.3456 -3.18628 0
-88.7317 -3.18422 0
-87.1173 -3.18333 0
-85.5045 -3.18366 0
-83.8912 -3.18363 0
-82.2772 -3.18355 0
-80.6642 -3.18429 0
-79.0517 -3.18349 0
-77.4386 -3.18264 0
-75.8258 -3.1842 0
-74.2117 -3.18532 0
-72.5973 -3.18547 0
-70.9835 -3.18408 0
-69.3716 -3.1836 0
-67.7576 -3.18363 0
-66.144 -3.18484 0
-64.5299 -3.1844 0
-62.917 -3.18415 0
-61.3036 -3.1851 0
-59.6902 -3.18433 0
-58.0774 -3.18416 0
-56.4637 -3.18378 0
-54.85 -3.18323 0
-53.2363 -3.18315 0
-51.6248 -3.18289 0
-50.0114 -3.1826 0
-48.3986 -3.18336 0
-46.7848 -3.18334 0
-45.1712 -3.18423 0
-43.557 -3.18326 0
-41.9447 -3.18352 0
-40.3322 -3.18115 0
-38.718 -3.18135 0
-37.1046 -3.18189 0
-35.4915 -3.18126 0
-33.8787 -3.1817 0
-32.2659 -3.18254 0
-30.6526 -3.18271 0
-29.0402 -3.18294 0
-27.4282 -3.18309 0
-25.8151 -3.18294 0
-24.2009 -3.18173 0
-22.5868 -3.18269 0
-20.9727 -3.18145 0
-19.3591 -3.18166 0
-17.7476 -3.18092 0
-16.1329 -3.18153 0
-14.5196 -3.1819 0
-12.9062 -3.18109 0
-11.2925 -3.17927 0
-9.6794 -3.17992 0
-8.06516 -3.18053 0
-6.4525 -3.17938 0
-4.83867 -3.17991 0
-3.22532 -3.18127 0
-1.61288 -3.17988 0
0 -3.17941 0
-1097.42 53.9913 0
-1097.07 47.4227 0
-1096.86 41.3139 0
-1096.62 35.5132 0
-1096.36 29.9978 0
-1096.11 24.7614 0
-1095.83 19.8174 0
-1095.49 15.1739 0
-1095.05 10.8711 0
-1094.57 6.94939 0
-1094.05 3.4192 0
-1093.51 0.274593 0
-1092.95 -2.49695 0
-1092.36 -4.91388 0
-1091.75 -6.99964 0
-1091.11 -8.78101 0
-1090.45 -10.2867 0
-1089.76 -11.5447 0
-1089.04 -12.5819 0
-1088.28 -13.4229 0
-1087.49 -14.0899 0
-1086.67 -14.6035 0
-1085.81 -14.9811 0
-1084.91 -15.2386 0
-1083.98 -15.3905 0
-1083.02 -15.4479 0
-1082.03 -15.4226 0
-1081.01 -15.3231 0
-1079.95 -15.1583 0
-1078.87 -14.9348 0
-1077.77 -14.6597 0
-1076.63 -14.3381 0
-1075.47 -13.9752 0
-1074.29 -13.5761 0
-1073.08 -13.1444 0
-1071.84 -12.6846 0
-1070.58 -12.2 0
-1069.3 -11.6944 0
-1068 -11.1705 0
-1066.67 -10.632 0
-1065.33 -10.0816 0
-1063.96 -9.52218 0
-1062.57 -8.95669 0
-1061.16 -8.38714 0
-1059.74 -7.81645 0
-1058.29 -7.24669 0
-1056.83 -6.6803 0
-1055.35 -6.119 0
-1053.86 -5.56455 0
-1052.35 -5.01912 0
-1050.82 -4.48398 0
-1049.28 -3.96059 0
-1047.73 -3.45043 0
-1046.16 -2.95441 0
-1044.58 -2.47456 0
-1042.99 -2.0107 0
-1041.39 -1.5644 0
-1039.78 -1.13594 0
-1038.16 -0.725728 0
-1036.54 -0.334581 0
-1034.9 0.0366537 0
-1033.26 0.387522 0
-1031.61 0.718406 0
-1029.95 1.02898 0
-1028.29 1.31922 0
-1026.62 1.5885 0
-1024.95 1.83785 0
-1023.27 2.06609 0
-1021.59 2.27478 0
-1019.91 2.46314 0
-1018.22 2.6317 0
-1016.53 2.7813 0
-1014.84 2.91142 0
-1013.15 3.02321 0
-1011.46 3.11638 0
-1009.77 3.19262 0
-1008.08 3.25131 0
-1006.38 3.29334 0
-1004.69 3.31962 0
-1003 3.33005 0
-1001.31 3.32603 0
-999.62 3.3077 0
-997.932 3.27547 0
-996.246 3.23065 0
-994.562 3.17341 0
-992.88 3.10491 0
-991.199 3.02511 0
-989.521 2.93566 0
-987.845 2.83607 0
-986.172 2.72782 0
-984.502 2.61125 0
-982.834 2.48702 0
-981.169 2.35655 0
-979.506 2.21933 0
-977.846 2.07673 0
-976.19 1.92919 0
-974.536 1.77768 0
-972.885 1.62202 0
-971.237 1.46331 0
-969.593 1.30247 0
-967.95 1.13907 0
-966.311 0.97479 0