<?xml version="1.0"?>
<VTKFile type="StructuredGrid"  version="0.1" byte_order="LittleEndian" compressor="vtkZLibDataCompressor">
  <StructuredGrid WholeExtent="0 700 0 30 0 0">
    <Piece Extent="0 700 0 30 0 0">
      <PointData Vectors="Velocity">
        <DataArray type="Float32" Name="Velocity" NumberOfComponents="3" format="ascii">
-1083.7 52.3292 0
-1083.94 46.0817 0
-1084.25 40.0236 0
-1084.59 34.2817 0
-1084.9 28.89 0
-1085.13 23.7569 0
-1085.36 18.8192 0
-1085.65 14.1744 0
-1085.93 9.9093 0
-1086.19 6.03935 0
-1086.41 2.55544 0
-1086.6 -0.555198 0
-1086.73 -3.30813 0
-1086.81 -5.72229 0
-1086.82 -7.82235 0
-1086.76 -9.63338 0
-1086.62 -11.1813 0
-1086.39 -12.492 0
-1086.09 -13.588 0
-1085.71 -14.492 0
-1085.25 -15.224 0
-1084.72 -15.8031 0
-1084.13 -16.2453 0
-1083.46 -16.5663 0
-1082.74 -16.7787 0
-1081.96 -16.8955 0
-1081.13 -16.9274 0
-1080.25 -16.883 0
-1079.32 -16.7713 0
-1078.35 -16.6006 0
-1077.34 -16.3765 0
-1076.29 -16.1054 0
-1075.21 -15.7929 0
-1074.09 -15.4433 0
-1072.93 -15.0614 0
-1071.75 -14.6508 0
-1070.53 -14.2154 0
-1069.28 -13.7589 0
-1068.01 -13.2846 0
-1066.71 -12.7957 0
-1065.38 -12.2947 0
-1064.02 -11.784 0
-1062.64 -11.2673 0
-1061.23 -10.7469 0
-1059.81 -10.2244 0
-1058.36 -9.70247 0
-1056.88 -9.18247 0
-1055.39 -8.66765 0
-1053.88 -8.15916 0
-1052.35 -7.65873 0
-1050.8 -7.16729 0
-1049.23 -6.6873 0
-1047.65 -6.21865 0
-1046.06 -5.76412 0
-1044.45 -5.32337 0
-1042.83 -4.89819 0
-1041.19 -4.48915 0
-1039.55 -4.09714 0
-1037.9 -3.72193 0
-1036.23 -3.36471 0
-1034.56 -3.026 0
-1032.88 -2.70571 0
-1031.19 -2.40457 0
-1029.5 -2.12266 0
-1027.8 -1.86089 0
-1026.09 -1.61763 0
-1024.38 -1.39329 0
-1022.67 -1.18819 0
-1020.96 -1.00267 0
-1019.24 -0.835118 0
-1017.52 -0.68656 0
-1015.8 -0.555716 0
-1014.08 -0.442558 0
-1012.35 -0.346469 0
-1010.63 -0.267627 0
-1008.91 -0.205404 0
-1007.19 -0.158887 0
-1005.47 -0.128284 0
-1003.76 -0.11321 0
-1002.04 -0.111881 0
-1000.33 -0.123454 0
-998.615 -0.14913 0
-996.907 -0.187214 0
-995.202 -0.23712 0
-993.5 -0.298746 0
-991.802 -0.370357 0
-990.106 -0.452762 0
-988.415 -0.544097 0
-986.727 -0.644119 0
-985.043 -0.752515 0
-983.363 -0.868068 0
-981.686 -0.990305 0
-980.014 -1.1194 0
-978.345 -1.25274 0
-976.682 -1.39196 0
-975.021 -1.53535 0
-973.365 -1.68267 0
-971.713 -1.83277 0
-970.065 -1.98606 0
-968.421 -2.1404 0
-966.78 -2.29708 0
-965.143 -2.45524 0
-963.51 -2.61365 0
-961.881 -2.77151 0
-960.255 -2.92915 0
-958.632 -3.08595 0
-957.013 -3.2411 0
-955.396 -3.39518 0
-953.783 -3.54788 0
-952.172 -3.69775 0
-950.565 -3.84533 0
-948.96 -3.99008 0
-947.357 -4.13094 0
-945.757 -4.26877 0
-944.159 -4.40264 0
-942.564 -4.53165 0
-940.969 -4.65788 0
-939.376 -4.77927 0
-937.786 -4.89576 0
-936.197 -5.00742 0
-934.609 -5.11484 0
-933.023 -5.21674 0
-931.439 -5.31436 0
-929.854 -5.40594 0
-928.271 -5.49326 0
-926.688 -5.57504 0
-925.106 -5.65223 0
-923.525 -5.72427 0
-921.945 -5.79061 0
-920.364 -5.85184 0
-918.783 -5.90853 0
-917.203 -5.95844 0
-915.622 -6.00447 0
-914.042 -6.04531 0
-912.461 -6.08141 0
-910.88 -6.11333 0
-909.3 -6.13901 0
-907.718 -6.16183 0
-906.136 -6.17913 0
-904.553 -6.19254 0
-902.97 -6.20171 0
-901.386 -6.20658 0
-899.802 -6.20791 0
-898.217 -6.2063 0
-896.631 -6.19897 0
-895.043 -6.18857 0
-893.455 -6.17579 0
-891.867 -6.16005 0
-890.277 -6.13986 0
-888.686 -6.11817 0
-887.094 -6.09438 0
-885.502 -6.06657 0
-883.908 -6.03465 0
-882.314 -6.00235 0
-880.718 -5.96737 0
-879.122 -5.93106 0
-877.524 -5.89317 0
-875.925 -5.85293 0
-874.325 -5.81217 0
-872.723 -5.76898 0
-871.122 -5.72551 0
-869.518 -5.68129 0
-867.915 -5.63516 0
-866.31 -5.58884 0
-864.704 -5.54166 0
-863.097 -5.49437 0
-861.49 -5.44695 0
-859.881 -5.399 0
-858.271 -5.35002 0
-856.661 -5.30257 0
-855.05 -5.2555 0
-853.438 -5.20592 0
-851.824 -5.15872 0
-850.21 -5.11186 0
-848.597 -5.06589 0
-846.98 -5.019 0
-845.366 -4.97543 0
-843.748 -4.93101 0
-842.132 -4.88692 0
-840.513 -4.84574 0
-838.895 -4.80349 0
-837.277 -4.7636 0
-835.656 -4.72392 0
-834.037 -4.68633 0
-832.416 -4.64955 0
-830.795 -4.61461 0
-829.174 -4.58046 0
-827.553 -4.54849 0
-825.931 -4.51649 0
-824.309 -4.48586 0
-822.687 -4.45755 0
-821.065 -4.42979 0
-819.442 -4.40465 0
-817.82 -4.38139 0
-816.197 -4.35861 0
-814.574 -4.33594 0
-812.951 -4.31416 0
-811.327 -4.29687 0
-809.703 -4.27994 0
-808.079 -4.26558 0
-806.456 -4.25118 0
-804.834 -4.23806 0
-803.211 -4.22784 0
-801.589 -4.21779 0
-799.965 -4.2079 0
-798.341 -4.20094 0
-796.719 -4.196 0
-795.097 -4.19162 0
-793.475 -4.18723 0
-791.852 -4.1845 0
-790.23 -4.18557 0
-788.608 -4.18656 0
-786.985 -4.18725 0
-785.365 -4.19024 0
-783.743 -4.19466 0
-782.123 -4.19819 0
-780.503 -4.20371 0
-778.882 -4.21105 0
-777.262 -4.2168 0
-775.641 -4.22685 0
-774.021 -4.23619 0
-772.402 -4.24698 0
-770.782 -4.25766 0
-769.163 -4.26805 0
-767.545 -4.28096 0
-765.925 -4.29506 0
-764.307 -4.30654 0
-762.689 -4.32078 0
-761.071 -4.33587 0
-759.455 -4.35027 0
-757.839 -4.36549 0
-756.222 -4.37972 0
-754.606 -4.39386 0
-752.99 -4.41019 0
-751.374 -4.42796 0
-749.758 -4.44408 0
-748.143 -4.46139 0
-746.528 -4.47765 0
-744.913 -4.49416 0
-743.299 -4.51052 0
-741.686 -4.5255 0
-740.073 -4.54316 0
-738.459 -4.55953 0
-736.843 -4.5763 0
-735.23 -4.59207 0
-733.618 -4.60776 0
-732.006 -4.62363 0
-730.393 -4.64084 0
-728.781 -4.65537 0
-727.168 -4.67131 0
-725.557 -4.68529 0
-723.945 -4.69979 0
-722.333 -4.71478 0
-720.721 -4.7292 0
-719.11 -4.74325 0
-717.5 -4.75612 0
-715.889 -4.77037 0
-714.278 -4.78271 0
-712.668 -4.79477 0
-711.057 -4.80692 0
-709.446 -4.81846 0
-707.834 -4.82845 0
-706.224 -4.83869 0
-704.614 -4.8473 0
-703.004 -4.85784 0
-701.393 -4.866 0
-699.783 -4.87669 0
-698.172 -4.88682 0
-696.563 -4.89376 0
-694.953 -4.90047 0
-693.344 -4.90626 0
-691.734 -4.91313 0
-690.124 -4.91821 0
-688.514 -4.92509 0
-686.905 -4.93025 0
-685.294 -4.93355 0
-683.684 -4.93778 0
-682.075 -4.94243 0
-680.463 -4.94661 0
-678.853 -4.94953 0
-677.244 -4.95266 0
-675.635 -4.95395 0
-674.023 -4.9567 0
-672.412 -4.95731 0
-670.803 -4.95839 0
-669.193 -4.95875 0
-667.582 -4.9594 0
-665.973 -4.95777 0
-664.362 -4.95884 0
-662.752 -4.95704 0
-661.142 -4.95565 0
-659.53 -4.95193 0
-657.918 -4.95349 0
-656.306 -4.95188 0
-654.696 -4.95112 0
-653.085 -4.9483 0
-651.474 -4.94559 0
-649.862 -4.94148 0
-648.252 -4.93825 0
-646.641 -4.93338 0
-645.031 -4.93068 0
-643.42 -4.92711 0
-641.809 -4.92312 0
-640.196 -4.91928 0
-638.582 -4.91567 0
-636.971 -4.90979 0
-635.359 -4.90584 0
-633.747 -4.90289 0
-632.136 -4.89768 0
-630.524 -4.89383 0
-628.912 -4.88939 0
-627.299 -4.8843 0
-625.687 -4.87954 0
-624.075 -4.87469 0
-622.462 -4.86917 0
-620.849 -4.86383 0
-619.236 -4.85946 0
-617.623 -4.85391 0
-616.009 -4.84802 0
-614.395 -4.84334 0
-612.782 -4.8382 0
-611.169 -4.83261 0
-609.556 -4.82773 0
-607.944 -4.82401 0
-606.329 -4.8171 0
-604.717 -4.81245 0
-603.105 -4.80768 0
-601.491 -4.80258 0
-599.877 -4.80073 0
-598.263 -4.79487 0
-596.647 -4.79083 0
-595.033 -4.78678 0
-593.421 -4.78312 0
-591.808 -4.77867 0
-590.195 -4.77584 0
-588.582 -4.77233 0
-586.968 -4.76696 0
-585.354 -4.76302 0
-583.741 -4.76005 0
-582.127 -4.75525 0
-580.512 -4.75115 0
-578.898 -4.75033 0
-577.283 -4.74679 0
-575.669 -4.74469 0
-574.056 -4.74327 0
-572.441 -4.73944 0
-570.827 -4.73754 0
-569.212 -4.73596 0
-567.597 -4.73277 0
-565.983 -4.72948 0
-564.369 -4.73089 0
-562.756 -4.72823 0
-561.14 -4.72623 0
-559.526 -4.72581 0
-557.914 -4.72476 0
-556.3 -4.72255 0
-554.685 -4.71976 0
-553.071 -4.7217 0
-551.456 -4.7202 0
-549.842 -4.72087 0
-548.229 -4.71831 0
-546.615 -4.72017 0
-545.001 -4.71934 0
-543.386 -4.71781 0
-541.772 -4.71895 0
-540.157 -4.72127 0
-538.544 -4.72056 0
-536.93 -4.72087 0
-535.315 -4.72013 0
-533.702 -4.72103 0
-532.088 -4.72197 0
-530.475 -4.72071 0
-528.862 -4.72218 0
-527.25 -4.7235 0
-525.636 -4.72316 0
-524.022 -4.72429 0
-522.409 -4.72565 0
-520.794 -4.72658 0
-519.18 -4.7284 0
-517.567 -4.72699 0
-515.955 -4.72943 0
-514.34 -4.7301 0
-512.728 -4.73094 0
-511.114 -4.73425 0
-509.5 -4.73502 0
-507.887 -4.73696 0
-506.274 -4.73833 0
-504.66 -4.73864 0
-503.049 -4.7399 0
-501.435 -4.74246 0
-499.822 -4.74413 0
-498.208 -4.74615 0
-496.597 -4.7498 0
-494.985 -4.75221 0
-493.371 -4.75209 0
-491.757 -4.75166 0
-490.145 -4.75224 0
-488.533 -4.75459 0
-486.921 -4.75649 0
-485.308 -4.75836 0
-483.695 -4.75915 0
-482.082 -4.76001 0
-480.469 -4.76203 0
-478.855 -4.76556 0
-477.243 -4.76576 0
-475.63 -4.76869 0
-474.018 -4.77039 0
-472.406 -4.77124 0
-470.794 -4.77388 0
-469.182 -4.77289 0
-467.569 -4.77481 0
-465.954 -4.77797 0
-464.341 -4.77872 0
-462.731 -4.78237 0
-461.118 -4.78059 0
-459.504 -4.78272 0
-457.889 -4.78371 0
-456.274 -4.78559 0
-454.664 -4.78829 0
-453.053 -4.78843 0
-451.441 -4.79031 0
-449.829 -4.78976 0
-448.216 -4.79214 0
-446.603 -4.79436 0
-444.993 -4.79302 0
-443.378 -4.79389 0
-441.766 -4.79373 0
-440.151 -4.79432 0
-438.54 -4.79467 0
-436.927 -4.79283 0
-435.313 -4.79763 0
-433.702 -4.79928 0
-432.09 -4.80014 0
-430.477 -4.79834 0
-428.867 -4.79834 0
-427.254 -4.80042 0
-425.639 -4.79879 0
-424.026 -4.80034 0
-422.413 -4.80246 0
-420.803 -4.80208 0
-419.191 -4.80146 0
-417.578 -4.80259 0
-415.965 -4.80161 0
-414.353 -4.80339 0
-412.741 -4.80409 0
-411.13 -4.80346 0
-409.52 -4.80521 0
-407.904 -4.80147 0
-406.292 -4.80265 0
-404.678 -4.80193 0
-403.066 -4.80417 0
-401.453 -4.80307 0
-399.841 -4.80219 0
-398.228 -4.80081 0
-396.617 -4.80167 0
-395.003 -4.80102 0
-393.392 -4.80223 0
-391.778 -4.80248 0
-390.166 -4.79951 0
-388.555 -4.80025 0
-386.941 -4.79918 0
-385.328 -4.79989 0
-383.715 -4.80044 0
-382.104 -4.79776 0
-380.493 -4.79754 0
-378.881 -4.80023 0
-377.267 -4.79679 0
-375.654 -4.79665 0
-374.039 -4.79706 0
-372.426 -4.79863 0
-370.813 -4.79824 0
-369.2 -4.79812 0
-367.588 -4.79813 0
-365.976 -4.79608 0
-364.364 -4.79369 0
-362.752 -4.79344 0
-361.14 -4.79332 0
-359.528 -4.79099 0
-357.914 -4.78882 0
-356.301 -4.79109 0
-354.688 -4.78953 0
-353.076 -4.78911 0
-351.463 -4.78733 0
-349.85 -4.78648 0
-348.239 -4.78393 0
-346.626 -4.78564 0
-345.012 -4.78702 0
-343.401 -4.78399 0
-341.79 -4.7839 0
-340.176 -4.78267 0
-338.562 -4.78238 0
-336.95 -4.78026 0
-335.339 -4.78037 0
-333.727 -4.77784 0
-332.115 -4.77834 0
-330.5 -4.77919 0
-328.889 -4.77889 0
-327.276 -4.779 0
-325.664 -4.77649 0
-324.052 -4.77565 0
-322.436 -4.7744 0
-320.825 -4.7742 0
-319.211 -4.77353 0
-317.602 -4.77327 0
-315.991 -4.7733 0
-314.378 -4.77046 0
-312.763 -4.76931 0
-311.149 -4.77002 0
-309.537 -4.77022 0
-307.924 -4.76958 0
-306.315 -4.76971 0
-304.703 -4.76926 0
-303.09 -4.76867 0
-301.479 -4.76687 0
-299.867 -4.76768 0
-298.253 -4.7658 0
-296.641 -4.76697 0
-295.029 -4.76805 0
-293.415 -4.76643 0
-291.802 -4.76736 0
-290.19 -4.76478 0
-288.579 -4.765 0
-286.964 -4.76449 0
-285.351 -4.76245 0
-283.739 -4.76366 0
-282.127 -4.76478 0
-280.512 -4.76543 0
-278.901 -4.76587 0
-277.288 -4.76299 0
-275.677 -4.76574 0
-274.064 -4.76525 0
-272.452 -4.76407 0
-270.839 -4.76497 0
-269.227 -4.76432 0
-267.613 -4.76253 0
-266.001 -4.76519 0
-264.387 -4.76439 0
-262.776 -4.76548 0
-261.163 -4.76305 0
-259.551 -4.76295 0
-257.938 -4.76377 0
-256.325 -4.76284 0
-254.712 -4.76236 0
-253.1 -4.75854 0
-251.487 -4.76243 0
-249.872 -4.76365 0
-248.26 -4.76387 0
-246.649 -4.76355 0
-245.037 -4.76437 0
-243.424 -4.76208 0
-241.812 -4.76621 0
-240.199 -4.76229 0
-238.588 -4.76268 0
-236.973 -4.76397 0
-235.361 -4.76539 0
-233.749 -4.76409 0
-232.136 -4.76672 0
-230.524 -4.7617 0
-228.913 -4.76509 0
-227.301 -4.76399 0
-225.686 -4.76561 0
-224.074 -4.76621 0
-222.465 -4.76429 0
-220.854 -4.76423 0
-219.241 -4.76527 0
-217.627 -4.76507 0
-216.014 -4.76444 0
-214.403 -4.76274 0
-212.788 -4.76326 0
-211.177 -4.76184 0
-209.565 -4.76173 0
-207.952 -4.76202 0
-206.339 -4.76188 0
-204.729 -4.76257 0
-203.12 -4.76386 0
-201.505 -4.76504 0
-199.893 -4.76513 0
-198.281 -4.76546 0
-196.668 -4.76349 0
-195.057 -4.76259 0
-193.444 -4.7639 0
-191.83 -4.76142 0
-190.22 -4.76491 0
-188.607 -4.76464 0
-186.998 -4.76426 0
-185.384 -4.7639 0
-183.772 -4.76419 0
-182.16 -4.76519 0
-180.546 -4.76426 0
-178.934 -4.76337 0
-177.324 -4.7657 0
-175.711 -4.76375 0
-174.098 -4.76337 0
-172.486 -4.7639 0
-170.872 -4.76334 0
-169.261 -4.76291 0
-167.649 -4.76342 0
-166.037 -4.76411 0
-164.426 -4.76563 0
-162.81 -4.76426 0
-161.201 -4.76492 0
-159.591 -4.76545 0
-157.978 -4.76382 0
-156.365 -4.76356 0
-154.752 -4.76499 0
-153.14 -4.76338 0
-151.527 -4.76773 0
-149.914 -4.76694 0
-148.304 -4.76393 0
-146.69 -4.76533 0
-145.077 -4.76525 0
-143.466 -4.76512 0
-141.853 -4.76503 0
-140.24 -4.76588 0
-138.627 -4.76784 0
-137.015 -4.76738 0
-135.403 -4.76702 0
-133.792 -4.7665 0
-132.181 -4.76587 0
-130.568 -4.76721 0
-128.955 -4.76717 0
-127.345 -4.76736 0
-125.731 -4.76497 0
-124.118 -4.76742 0
-122.507 -4.76634 0
-120.893 -4.76877 0
-119.282 -4.76788 0
-117.67 -4.76783 0
-116.059 -4.76792 0
-114.447 -4.76906 0
-112.836 -4.76737 0
-111.223 -4.76834 0
-109.613 -4.76825 0
-108.001 -4.7684 0
-106.389 -4.76738 0
-104.777 -4.76831 0
-103.164 -4.76651 0
-101.552 -4.76454 0
-99.9383 -4.76745 0
-98.3278 -4.76629 0
-96.7161 -4.76738 0
-95.1049 -4.76734 0
-93.4909 -4.76745 0
-91.8776 -4.76542 0
-90.2662 -4.76608 0
-88.6559 -4.76847 0
-87.0443 -4.76852 0
-85.4314 -4.76964 0
-83.8197 -4.76868 0
-82.2069 -4.76915 0
-80.5949 -4.77045 0
-78.9843 -4.77031 0
-77.372 -4.7694 0
-75.7594 -4.76729 0
-74.1472 -4.76888 0
-72.5354 -4.76763 0
-70.9239 -4.76708 0
-69.3132 -4.76656 0
-67.6995 -4.76857 0
-66.0866 -4.76739 0
-64.4759 -4.76848 0
-62.8646 -4.76929 0
-61.2537 -4.7675 0
-59.6392 -4.76598 0
-58.0274 -4.76638 0
-56.4154 -4.76699 0
-54.8047 -4.76736 0
-53.1916 -4.76671 0
-51.579 -4.76746 0
-49.9666 -4.7668 0
-48.3549 -4.76571 0
-46.7423 -4.76622 0
-45.1315 -4.76527 0
-43.5192 -4.76538 0
-41.9091 -4.76558 0
-40.2966 -4.76629 0
-38.6835 -4.76727 0
-37.0715 -4.7669 0
-35.4608 -4.76715 0
-33.8496 -4.76789 0
-32.2383 -4.76759 0
-30.6246 -4.76702 0
-29.0141 -4.76425 0
-27.4015 -4.76575 0
-25.7897 -4.76714 0
-24.1793 -4.76546 0
-22.5683 -4.76553 0
-20.9582 -4.7671 0
-19.3467 -4.76461 0
-17.7331 -4.76476 0
-16.1199 -4.76651 0
-14.5095 -4.76382 0
-12.8966 -4.76392 0
-11.2844 -4.76532 0
-9.67264 -4.76284 0
-8.06117 -4.76208 0
-6.44814 -4.76245 0
-4.83782 -4.76565 0
-3.22557 -4.76509 0
-1.61387 -4.7667 0
0 -4.76485 0
-1089.95 52.6148 0
-1090.03 46.3056 0
-1090.1 40.218 0
-1090.11 34.4559 0
-1090.12 29.0478 0
-1090.18 23.9052 0
-1090.21 18.9604 0
-1090.16 14.3069 0
-1090.05 10.0337 0
-1089.92 6.15991 0
-1089.77 2.67892 0
-1089.58 -0.419653 0
-1089.37 -3.15003 0
-1089.12 -5.53145 0
-1088.82 -7.58887 0
-1088.47 -9.3494 0
-1088.07 -10.8416 0
-1087.62 -12.0924 0
-1087.11 -13.1275 0
-1086.54 -13.9704 0
-1085.92 -14.6423 0
-1085.25 -15.1633 0
-1084.52 -15.5499 0
-1083.74 -15.8179 0
-1082.91 -15.9805 0
-1082.04 -16.0499 0
-1081.13 -16.0372 0
-1080.18 -15.9512 0
-1079.19 -15.8 0
-1078.16 -15.5916 0
-1077.1 -15.3319 0
-1076.01 -15.0269 0
-1074.88 -14.6817 0
-1073.73 -14.3007 0
-1072.54 -13.8886 0
-1071.33 -13.4487 0
-1070.09 -12.9853 0
-1068.83 -12.5014 0
-1067.54 -12.0006 0
-1066.22 -11.4859 0
-1064.88 -10.96 0
-1063.52 -10.4259 0
-1062.13 -9.88603 0
-1060.72 -9.34308 0
-1059.3 -8.79939 0
-1057.85 -8.25687 0
-1056.38 -7.71753 0
-1054.89 -7.18392 0
-1053.39 -6.65725 0
-1051.86 -6.14018 0
-1050.33 -5.63306 0
-1048.77 -5.13757 0
-1047.2 -4.65519 0
-1045.62 -4.18707 0
-1044.03 -3.73367 0
-1042.42 -3.29708 0
-1040.81 -2.87738 0
-1039.18 -2.47525 0
-1037.54 -2.09106 0
-1035.89 -1.72544 0
-1034.24 -1.37887 0
-1032.58 -1.05184 0
-1030.91 -0.744265 0
-1029.23 -0.457303 0
-1027.55 -0.190259 0
-1025.87 0.0572588 0
-1024.18 0.28512 0
-1022.48 0.493513 0
-1020.79 0.681623 0
-1019.09 0.85128 0
-1017.39 1.00148 0
-1015.68 1.13331 0
-1013.98 1.24649 0
-1012.27 1.34277 0
-1010.57 1.42154 0
-1008.86 1.48345 0
-1007.16 1.52888 0
-1005.45 1.55804 0
-1003.75 1.57177 0
-1002.05 1.57156 0
-1000.35 1.55706 0
-998.65 1.52946 0
-996.953 1.48901 0
-995.26 1.43626 0
-993.568 1.37171 0
-991.88 1.29683 0
-990.194 1.21122 0
-988.511 1.11638 0
-986.831 1.01312 0
-985.155 0.901534 0
-983.481 0.782329 0
-981.811 0.656816 0
-980.144 0.523942 0
-978.481 0.386059 0
-976.822 0.243622 0
-975.165 0.0965447 0
-973.513 -0.0542601 0
-971.863 -0.208389 0
-970.217 -0.364703 0
-968.574 -0.522606 0
-966.935 -0.683147 0
-965.299 -0.844201 0
-963.666 -1.00607 0
-962.037 -1.16727 0
-960.41 -1.32789 0
-958.786 -1.48807 0
-957.165 -1.64602 0
-955.547 -1.80291 0
-953.932 -1.95829 0
-952.319 -2.1107 0
-950.708 -2.26095 0
-949.1 -2.40784 0
-947.494 -2.55095 0
-945.89 -2.69104 0
-944.288 -2.82659 0
-942.689 -2.95808 0
-941.09 -3.08511 0
-939.493 -3.20783 0
-937.898 -3.32575 0
-936.305 -3.43951 0
-934.712 -3.54798 0
-933.121 -3.65195 0
-931.531 -3.7497 0
-929.941 -3.84263 0
-928.354 -3.93001 0
-926.766 -4.01279 0
-925.179 -4.09029 0
-923.593 -4.16328 0
-922.007 -4.22982 0
-920.421 -4.29172 0
-918.835 -4.34773 0
-917.25 -4.39848 0
-915.665 -4.44414 0
-914.079 -4.48491 0
-912.494 -4.52066 0
-910.908 -4.5517 0
-909.323 -4.57819 0
-907.737 -4.60009 0
-906.15 -4.61723 0
-904.564 -4.6299 0
-902.977 -4.63821 0
-901.389 -4.64298 0
-899.801 -4.64375 0
-898.212 -4.64059 0
-896.622 -4.63324 0
-895.032 -4.62215 0
-893.441 -4.60793 0
-891.849 -4.59072 0
-890.256 -4.57075 0
-888.663 -4.54745 0
-887.069 -4.52243 0
-885.473 -4.49439 0
-883.877 -4.46203 0
-882.281 -4.42827 0
-880.683 -4.39223 0
-879.084 -4.35572 0
-877.485 -4.3161 0
-875.884 -4.27521 0
-874.283 -4.23337 0
-872.681 -4.18922 0
-871.078 -4.14482 0
-869.474 -4.09978 0
-867.869 -4.05262 0
-866.264 -4.00516 0
-864.657 -3.95755 0
-863.05 -3.90953 0
-861.442 -3.86063 0
-859.833 -3.81198 0
-858.224 -3.76234 0
-856.613 -3.71454 0
-855.002 -3.66537 0
-853.39 -3.61622 0
-851.778 -3.56779 0
-850.164 -3.52066 0
-848.55 -3.47361 0
-846.936 -3.427 0
-845.321 -3.38156 0
-843.706 -3.33682 0
-842.089 -3.29249 0
-840.473 -3.25037 0
-838.855 -3.208 0
-837.237 -3.16792 0
-835.619 -3.12784 0
-834 -3.08906 0
-832.38 -3.05234 0
-830.761 -3.01709 0
-829.141 -2.98266 0
-827.521 -2.94998 0
-825.901 -2.91745 0
-824.28 -2.88687 0
-822.659 -2.85845 0
-821.039 -2.83141 0
-819.418 -2.80555 0
-817.797 -2.78206 0
-816.175 -2.7584 0
-814.553 -2.73563 0
-812.932 -2.71525 0
-811.311 -2.69749 0
-809.688 -2.68008 0
-808.066 -2.66456 0
-806.445 -2.65171 0
-804.822 -2.63913 0
-803.201 -2.62835 0
-801.578 -2.61781 0
-799.957 -2.60886 0
-798.336 -2.6016 0
-796.715 -2.59698 0
-795.094 -2.59172 0
-793.472 -2.58841 0
-791.851 -2.58638 0
-790.23 -2.58624 0
-788.608 -2.58726 0
-786.988 -2.58964 0
-785.368 -2.59222 0
-783.748 -2.5962 0
-782.127 -2.60145 0
-780.508 -2.60613 0
-778.889 -2.61404 0
-777.269 -2.62046 0
-775.65 -2.62904 0
-774.031 -2.63956 0
-772.412 -2.64949 0
-770.793 -2.66132 0
-769.175 -2.67192 0
-767.557 -2.68479 0
-765.939 -2.69833 0
-764.32 -2.71194 0
-762.703 -2.72613 0
-761.086 -2.74115 0
-759.469 -2.75613 0
-757.853 -2.77196 0
-756.237 -2.7855 0
-754.62 -2.80113 0
-753.006 -2.81732 0
-751.39 -2.83425 0
-749.775 -2.85169 0
-748.16 -2.86914 0
-746.545 -2.88518 0
-744.93 -2.90214 0
-743.315 -2.91906 0
-741.701 -2.93554 0
-740.089 -2.95126 0
-738.474 -2.96862 0
-736.86 -2.98544 0
-735.247 -3.00202 0
-733.635 -3.01729 0
-732.022 -3.03363 0
-730.409 -3.05011 0
-728.796 -3.06535 0
-727.184 -3.08133 0
-725.572 -3.09654 0
-723.96 -3.11024 0
-722.348 -3.1256 0
-720.736 -3.14029 0
-719.124 -3.15443 0
-717.514 -3.16789 0
-715.902 -3.18088 0
-714.29 -3.19387 0
-712.679 -3.20648 0
-711.068 -3.21817 0
-709.457 -3.22927 0
-707.846 -3.23983 0
-706.234 -3.25045 0
-704.624 -3.2598 0
-703.013 -3.2692 0
-701.402 -3.27889 0
-699.792 -3.28802 0
-698.18 -3.29799 0
-696.57 -3.30663 0
-694.961 -3.31265 0
-693.35 -3.31873 0
-691.74 -3.32475 0
-690.129 -3.33085 0
-688.519 -3.33798 0
-686.909 -3.34278 0
-685.299 -3.34579 0
-683.688 -3.35094 0
-682.077 -3.3544 0
-680.467 -3.35852 0
-678.857 -3.3613 0
-677.246 -3.36551 0
-675.636 -3.36588 0
-674.024 -3.36784 0
-672.415 -3.36911 0
-670.804 -3.37035 0
-669.193 -3.37103 0
-667.583 -3.37069 0
-665.972 -3.37056 0
-664.362 -3.36967 0
-662.751 -3.36896 0
-661.14 -3.36677 0
-659.529 -3.36458 0
-657.917 -3.36493 0
-656.306 -3.36419 0
-654.694 -3.36196 0
-653.083 -3.35999 0
-651.472 -3.35613 0
-649.86 -3.35265 0
-648.249 -3.34942 0
-646.637 -3.34508 0
-645.027 -3.3416 0
-643.416 -3.33711 0
-641.803 -3.33327 0
-640.191 -3.32883 0
-638.579 -3.32638 0
-636.966 -3.32023 0
-635.355 -3.31653 0
-633.743 -3.31241 0
-632.131 -3.30744 0
-630.519 -3.30424 0
-628.906 -3.29916 0
-627.294 -3.294 0
-625.682 -3.28988 0
-624.069 -3.28352 0
-622.457 -3.2787 0
-620.844 -3.27404 0
-619.231 -3.2694 0
-617.617 -3.26381 0
-616.003 -3.258 0
-614.391 -3.25243 0
-612.777 -3.24692 0
-611.164 -3.2417 0
-609.551 -3.23695 0
-607.938 -3.2327 0
-606.325 -3.22686 0
-604.712 -3.22231 0
-603.099 -3.21697 0
-601.487 -3.21238 0
-599.872 -3.20857 0
-598.258 -3.20368 0
-596.645 -3.19809 0
-595.031 -3.19473 0
-593.417 -3.1921 0
-591.804 -3.18785 0
-590.191 -3.18392 0
-588.577 -3.18053 0
-586.964 -3.17559 0
-585.349 -3.1724 0
-583.736 -3.16787 0
-582.123 -3.1647 0
-580.51 -3.16085 0
-578.895 -3.1583 0
-577.28 -3.15456 0
-575.667 -3.1533 0
-574.052 -3.15188 0
-572.438 -3.14949 0
-570.825 -3.14561 0
-569.21 -3.14415 0
-567.596 -3.14076 0
-565.982 -3.13937 0
-564.367 -3.13761 0
-562.752 -3.13634 0
-561.139 -3.13458 0
-559.526 -3.13342 0
-557.912 -3.13286 0
-556.297 -3.13102 0
-554.683 -3.12982 0
-553.07 -3.12988 0
-551.456 -3.12917 0
-549.842 -3.12897 0
-548.229 -3.1268 0
-546.614 -3.12751 0
-545 -3.12738 0
-543.386 -3.12645 0
-541.773 -3.12799 0
-540.159 -3.12848 0
-538.545 -3.12902 0
-536.93 -3.12882 0
-535.317 -3.12907 0
-533.703 -3.12928 0
-532.089 -3.13024 0
-530.476 -3.13019 0
-528.863 -3.13107 0
-527.25 -3.13263 0
-525.637 -3.13163 0
-524.023 -3.13283 0
-522.41 -3.13393 0
-520.796 -3.13546 0
-519.182 -3.13628 0
-517.568 -3.13645 0
-515.954 -3.13815 0
-514.34 -3.13902 0
-512.729 -3.14019 0
-511.115 -3.14288 0
-509.503 -3.14355 0
-507.889 -3.14599 0
-506.275 -3.14808 0
-504.662 -3.14835 0
-503.049 -3.15028 0
-501.436 -3.15194 0
-499.823 -3.15366 0
-498.211 -3.15656 0
-496.598 -3.15897 0
-494.986 -3.16145 0
-493.374 -3.16114 0
-491.76 -3.16035 0
-490.147 -3.16169 0
-488.534 -3.16372 0
-486.921 -3.16606 0
-485.308 -3.16701 0
-483.695 -3.16864 0
-482.083 -3.16981 0
-480.47 -3.17303 0
-478.857 -3.17408 0
-477.243 -3.1754 0
-475.631 -3.17807 0
-474.019 -3.18115 0
-472.407 -3.18181 0
-470.796 -3.18136 0
-469.182 -3.18213 0
-467.57 -3.18428 0
-465.958 -3.18787 0
-464.344 -3.18833 0
-462.731 -3.19091 0
-461.117 -3.19093 0
-459.503 -3.19215 0
-457.89 -3.19364 0
-456.277 -3.19577 0
-454.665 -3.19756 0
-453.055 -3.19938 0
-451.442 -3.20079 0
-449.83 -3.20115 0
-448.218 -3.20114 0
-446.605 -3.20289 0
-444.992 -3.20354 0
-443.379 -3.20203 0
-441.765 -3.20354 0
-440.153 -3.20421 0
-438.54 -3.20498 0
-436.928 -3.20457 0
-435.315 -3.20565 0
-433.702 -3.20888 0
-432.09 -3.21004 0
-430.478 -3.20832 0
-428.866 -3.20994 0
-427.253 -3.20933 0
-425.64 -3.20925 0
-424.027 -3.21041 0
-422.416 -3.21052 0
-420.803 -3.21228 0
-419.191 -3.2111 0
-417.579 -3.21164 0
-415.967 -3.21207 0
-414.353 -3.21293 0
-412.741 -3.21398 0
-411.128 -3.21418 0
-409.515 -3.21286 0
-407.903 -3.21206 0
-406.292 -3.21194 0
-404.68 -3.21274 0
-403.066 -3.21353 0
-401.452 -3.2117 0
-399.841 -3.21284 0
-398.23 -3.21058 0
-396.616 -3.21269 0
-395.004 -3.21244 0
-393.391 -3.2107 0
-391.778 -3.21238 0
-390.166 -3.21222 0
-388.554 -3.21105 0
-386.941 -3.20966 0
-385.327 -3.20876 0
-383.715 -3.21067 0
-382.103 -3.20897 0
-380.491 -3.20876 0
-378.878 -3.20859 0
-377.265 -3.20714 0
-375.652 -3.20602 0
-374.039 -3.20744 0
-372.427 -3.20847 0
-370.814 -3.20862 0
-369.202 -3.20787 0
-367.589 -3.20739 0
-365.976 -3.2061 0
-364.364 -3.20451 0
-362.75 -3.20246 0
-361.138 -3.20297 0
-359.526 -3.20195 0
-357.913 -3.20005 0
-356.3 -3.20057 0
-354.688 -3.19927 0
-353.073 -3.19885 0
-351.461 -3.19805 0
-349.849 -3.19572 0
-348.237 -3.1963 0
-346.626 -3.1962 0
-345.012 -3.19637 0
-343.401 -3.19474 0
-341.788 -3.19311 0
-340.176 -3.19353 0
-338.563 -3.19051 0
-336.95 -3.19085 0
-335.337 -3.1893 0
-333.725 -3.18969 0
-332.113 -3.18755 0
-330.501 -3.18831 0
-328.889 -3.18769 0
-327.275 -3.18863 0
-325.664 -3.18713 0
-324.05 -3.18623 0
-322.438 -3.18377 0
-320.825 -3.18366 0
-319.213 -3.18364 0
-317.6 -3.18474 0
-315.986 -3.18208 0
-314.374 -3.18036 0
-312.761 -3.17959 0
-311.15 -3.1807 0
-309.538 -3.17918 0
-307.925 -3.1801 0
-306.313 -3.17933 0
-304.701 -3.17973 0
-303.088 -3.1798 0
-301.477 -3.17725 0
-299.864 -3.17667 0
-298.253 -3.17625 0
-296.641 -3.17706 0
-295.026 -3.17706 0
-293.414 -3.1756 0
-291.802 -3.17692 0
-290.189 -3.17603 0
-288.577 -3.17452 0
-286.964 -3.17312 0
-285.353 -3.17474 0
-283.74 -3.1748 0
-282.128 -3.17523 0
-280.515 -3.17634 0
-278.901 -3.17549 0
-277.289 -3.17455 0
-275.677 -3.17368 0
-274.063 -3.17578 0
-272.451 -3.17379 0
-270.838 -3.17426 0
-269.226 -3.17322 0
-267.613 -3.17281 0
-266.001 -3.17289 0
-264.388 -3.17355 0
-262.776 -3.17437 0
-261.163 -3.17348 0
-259.551 -3.17193 0
-257.939 -3.17158 0
-256.326 -3.17258 0
-254.712 -3.17254 0
-253.1 -3.17059 0
-251.49 -3.1713 0
-249.876 -3.17429 0
-248.262 -3.17524 0
-246.648 -3.17423 0
-245.038 -3.17267 0
-243.425 -3.17313 0
-241.812 -3.17432 0
-240.2 -3.17245 0
-238.588 -3.1723 0
-236.975 -3.17316 0
-235.362 -3.17485 0
-233.75 -3.17431 0
-232.136 -3.17459 0
-230.525 -3.17417 0
-228.913 -3.17411 0
-227.3 -3.17363 0
-225.687 -3.17599 0
-224.074 -3.17524 0
-222.464 -3.17503 0
-220.853 -3.17366 0
-219.241 -3.17378 0
-217.626 -3.17413 0
-216.014 -3.17302 0
-214.401 -3.17297 0
-212.79 -3.17348 0
-211.178 -3.17208 0
-209.567 -3.17175 0
-207.954 -3.17253 0
-206.34 -3.1732 0
-204.73 -3.17394 0
-203.118 -3.17516 0
-201.507 -3.17397 0
-199.893 -3.17384 0
-198.281 -3.1754 0
-196.667 -3.17349 0
-195.055 -3.17342 0
-193.443 -3.17371 0
-191.831 -3.17321 0
-190.221 -3.1759 0
-188.608 -3.17481 0
-186.996 -3.17571 0
-185.385 -3.17418 0
-183.773 -3.17607 0
-182.159 -3.17481 0
-180.546 -3.17471 0
-178.933 -3.17421 0
-177.322 -3.17569 0
-175.711 -3.17337 0
-174.099 -3.17428 0
-172.487 -3.17473 0
-170.873 -3.17387 0
-169.26 -3.17423 0
-167.649 -3.175 0
-166.037 -3.17457 0
-164.425 -3.17596 0
-162.813 -3.17429 0
-161.2 -3.17573 0
-159.587 -3.1761 0
-157.976 -3.17362 0
-156.364 -3.17429 0
-154.752 -3.17537 0
-153.14 -3.17531 0
-151.528 -3.17694 0
-149.915 -3.17742 0
-148.302 -3.17554 0
-146.69 -3.17567 0
-145.079 -3.1765 0
-143.465 -3.17593 0
-141.854 -3.17527 0
-140.242 -3.17488 0
-138.63 -3.17828 0
-137.018 -3.17787 0
-135.404 -3.17839 0
-133.792 -3.17753 0
-132.179 -3.17772 0
-130.568 -3.1769 0
-128.955 -3.17785 0
-127.344 -3.17723 0
-125.732 -3.17425 0
-124.12 -3.17675 0
-122.508 -3.17664 0
-120.895 -3.17832 0
-119.284 -3.17801 0
-117.67 -3.17783 0
-116.059 -3.17881 0
-114.447 -3.17828 0
-112.836 -3.1792 0
-111.224 -3.17967 0
-109.612 -3.1795 0
-108 -3.17955 0
-106.388 -3.17948 0
-104.776 -3.17745 0
-103.165 -3.17677 0
-101.552 -3.17644 0
-99.94 -3.1773 0
-98.3286 -3.1781 0
-96.7158 -3.17812 0
-95.1029 -3.17778 0
-93.4911 -3.17805 0
-91.88 -3.17696 0
-90.2687 -3.17738 0
-88.6566 -3.178 0
-87.0438 -3.1799 0
-85.432 -3.17861 0
-83.8199 -3.17947 0
-82.2073 -3.1795 0
-80.5947 -3.18053 0
-78.9823 -3.18034 0
-77.3706 -3.17956 0
-75.7589 -3.17905 0
-74.1484 -3.17881 0
-72.5361 -3.17776 0
-70.9253 -3.17797 0
-69.3125 -3.17802 0
-67.7003 -3.17861 0
-66.0892 -3.17797 0
-64.4754 -3.17878 0
-62.8634 -3.17944 0
-61.2517 -3.17902 0
-59.6396 -3.17742 0
-58.0277 -3.17735 0
-56.4163 -3.17765 0
-54.8033 -3.17768 0
-53.1919 -3.17755 0
-51.5789 -3.17743 0
-49.9661 -3.17693 0
-48.3538 -3.17671 0
-46.7426 -3.17615 0
-45.1309 -3.17663 0
-43.5196 -3.17688 0
-41.908 -3.17631 0
-40.2971 -3.17608 0
-38.6853 -3.17743 0
-37.0726 -3.17754 0
-35.4617 -3.17872 0
-33.8492 -3.17837 0
-32.2375 -3.17864 0
-30.6265 -3.17769 0
-29.0137 -3.17671 0
-27.401 -3.17605 0
-25.7898 -3.1778 0
-24.1793 -3.17797 0
-22.5681 -3.17652 0
-20.9566 -3.17715 0
-19.3444 -3.17506 0
-17.7331 -3.17631 0
-16.1199 -3.1749 0
-14.508 -3.17647 0
-12.8962 -3.17496 0
-11.284 -3.17441 0
-9.67187 -3.17416 0
-8.06009 -3.17308 0
-6.4494 -3.17515 0
-4.83751 -3.1746 0
-3.22573 -3.17715 0
-1.613 -3.17462 0
0 -3.17471 0
-1096.55 53.2903 0
-1096.21 46.7621 0
-1096.01 40.6959 0
-1095.76 34.9392 0
-1095.51 29.468 0
-1095.26 24.2767 0
-1094.99 19.3784 0
-1094.64 14.7809 0
-1094.21 10.525 0
-1093.73 6.65104 0
-1093.21 3.16882 0
-1092.67 0.0723784 0
-1092.1 -2.651 0
-1091.52 -5.02045 0
-1090.91 -7.05915 0
-1090.27 -8.7952 0
-1089.61 -10.2572 0
-1088.92 -11.4734 0
-1088.19 -12.4706 0
-1087.43 -13.2739 0
-1086.64 -13.9053 0
-1085.81 -14.3856 0
-1084.95 -14.7322 0
-1084.05 -14.9613 0
-1083.12 -15.0864 0
-1082.15 -15.1197 0
-1081.16 -15.0721 0
-1080.13 -14.9529 0
-1079.07 -14.77 0
-1077.99 -14.5307 0
-1076.88 -14.2415 0
-1075.74 -13.9079 0
-1074.58 -13.535 0
-1073.39 -13.127 0
-1072.17 -12.6886 0
-1070.93 -12.2234 0
-1069.67 -11.7352 0
-1068.38 -11.2275 0
-1067.08 -10.7031 0
-1065.75 -10.1657 0
-1064.4 -9.61781 0
-1063.03 -9.06207 0
-1061.63 -8.50146 0
-1060.22 -7.93841 0
-1058.79 -7.37549 0
-1057.34 -6.81437 0
-1055.88 -6.25762 0
-1054.4 -5.70675 0
-1052.9 -5.1639 0
-1051.39 -4.63107 0
-1049.86 -4.10924 0
-1048.31 -3.59997 0
-1046.76 -3.1045 0
-1045.19 -2.62411 0
-1043.61 -2.1592 0
-1042.02 -1.7117 0
-1040.42 -1.28193 0
-1038.81 -0.87007 0
-1037.19 -0.477292 0
-1035.56 -0.103701 0
-1033.92 0.249932 0
-1032.28 0.58363 0
-1030.63 0.89711 0
-1028.97 1.18967 0
-1027.31 1.46199 0
-1025.64 1.71385 0
-1023.97 1.94526 0
-1022.29 2.15685 0
-1020.62 2.3484 0
-1018.93 2.52007 0
-1017.25 2.67193 0
-1015.56 2.80512 0
-1013.88 2.91968 0
-1012.19 3.01628 0
-1010.5 3.09489 0
-1008.81 3.15668 0
-1007.12 3.20164 0
-1005.43 3.23048 0
-1003.74 3.24344 0
-1002.05 3.24163 0
-1000.37 3.22573 0
-998.68 3.19585 0
-996.996 3.15365 0
-995.314 3.09886 0
-993.633 3.03216 0
-991.954 2.95438 0
-990.278 2.86668 0
-988.604 2.76911 0
-986.932 2.66269 0
-985.263 2.54801 0
-983.596 2.42618 0
-981.933 2.29751 0
-980.272 2.16216 0
-978.614 2.02087 0
-976.958 1.87502 0
-975.306 1.72522 0
-973.657 1.57105 0
-972.01 1.41413 0
-970.367 1.25477 0
-968.726 1.09351 0
-967.088 0.93018 0