<?xml version="1.0"?>
<VTKFile type="StructuredGrid"  version="0.1" byte_order="LittleEndian" compressor="vtkZLibDataCompressor">
  <StructuredGrid WholeExtent="0 700 0 30 0 0">
    <Piece Extent="0 700 0 30 0 0">
      <PointData Vectors="Velocity">
        <DataArray type="Float32" Name="Velocity" NumberOfComponents="3" format="ascii">
-1094.57 95.193 0
-1094.69 87.1979 0
-1094.88 79.3753 0
-1095.1 71.8305 0
-1095.31 64.5971 0
-1095.49 57.636 0
-1095.66 50.9077 0
-1095.86 44.4498 0
-1096.07 38.3275 0
-1096.29 32.5711 0
-1096.48 27.1851 0
-1096.66 22.1667 0
-1096.81 17.508 0
-1096.92 13.1997 0
-1096.99 9.22761 0
-1097.02 5.57455 0
-1096.99 2.22255 0
-1096.91 -0.848782 0
-1096.77 -3.65675 0
-1096.57 -6.21988 0
-1096.31 -8.55559 0
-1096 -10.6801 0
-1095.63 -12.608 0
-1095.21 -14.3529 0
-1094.74 -15.9276 0
-1094.22 -17.3434 0
-1093.66 -18.6106 0
-1093.06 -19.7393 0
-1092.42 -20.7374 0
-1091.74 -21.6128 0
-1091.02 -22.3721 0
-1090.27 -23.0227 0
-1089.49 -23.5697 0
-1088.67 -24.0185 0
-1087.82 -24.3746 0
-1086.95 -24.6426 0
-1086.04 -24.8267 0
-1085.1 -24.9315 0
-1084.14 -24.9603 0
-1083.14 -24.9186 0
-1082.12 -24.8083 0
-1081.07 -24.6348 0
-1079.99 -24.4006 0
-1078.88 -24.1098 0
-1077.75 -23.7665 0
-1076.58 -23.3741 0
-1075.39 -22.9357 0
-1074.18 -22.454 0
-1072.94 -21.934 0
-1071.67 -21.3783 0
-1070.38 -20.789 0
-1069.06 -20.1705 0
-1067.72 -19.525 0
-1066.36 -18.8561 0
-1064.97 -18.1662 0
-1063.56 -17.4576 0
-1062.13 -16.7337 0
-1060.68 -15.9963 0
-1059.21 -15.2479 0
-1057.72 -14.4914 0
-1056.21 -13.7278 0
-1054.68 -12.9604 0
-1053.13 -12.1904 0
-1051.57 -11.4201 0
-1049.99 -10.6511 0
-1048.4 -9.88449 0
-1046.79 -9.12252 0
-1045.17 -8.36682 0
-1043.53 -7.61855 0
-1041.89 -6.87883 0
-1040.22 -6.14912 0
-1038.55 -5.43102 0
-1036.87 -4.72444 0
-1035.17 -4.03181 0
-1033.47 -3.35233 0
-1031.76 -2.68948 0
-1030.04 -2.04257 0
-1028.31 -1.41076 0
-1026.57 -0.797707 0
-1024.82 -0.201548 0
-1023.07 0.376012 0
-1021.32 0.934794 0
-1019.56 1.47418 0
-1017.79 1.99382 0
-1016.02 2.49377 0
-1014.24 2.97307 0
-1012.46 3.43203 0
-1010.68 3.87044 0
-1008.89 4.28796 0
-1007.1 4.68419 0
-1005.31 5.06025 0
-1003.52 5.41502 0
-1001.73 5.74882 0
-999.931 6.06193 0
-998.135 6.35393 0
-996.339 6.62507 0
-994.543 6.876 0
-992.747 7.1064 0
-990.951 7.31671 0
-989.157 7.50735 0
-987.362 7.67763 0
-985.569 7.82893 0
-983.777 7.96052 0
-981.987 8.07443 0
-980.199 8.16937 0
-978.413 8.24664 0
-976.629 8.30626 0
-974.848 8.34849 0
-973.068 8.37348 0
-971.292 8.38247 0
-969.519 8.37587 0
-967.749 8.3528 0
-965.981 8.31468 0
-964.217 8.26265 0
-962.456 8.1962 0
-960.699 8.11652 0
-958.944 8.02419 0
-957.194 7.91825 0
-955.448 7.80048 0
-953.704 7.67156 0
-951.965 7.53026 0
-950.23 7.37866 0
-948.497 7.21707 0
-946.769 7.04612 0
-945.045 6.86549 0
-943.325 6.67692 0
-941.608 6.48048 0
-939.896 6.27653 0
-938.187 6.06413 0
-936.482 5.84539 0
-934.781 5.62113 0
-933.082 5.39094 0
-931.389 5.15534 0
-929.699 4.9153 0
-928.013 4.6715 0
-926.331 4.42338 0
-924.652 4.17242 0
-922.976 3.91795 0
-921.304 3.66113 0
-919.636 3.4018 0
-917.97 3.14124 0
-916.307 2.8792 0
-914.648 2.61666 0
-912.993 2.35329 0
-911.34 2.08958 0
-909.69 1.82729 0
-908.043 1.56513 0
-906.398 1.30286 0
-904.757 1.04282 0
-903.118 0.784035 0
-901.482 0.526953 0
-899.848 0.271885 0
-898.217 0.019631 0
-896.587 -0.230948 0
-894.961 -0.477538 0
-893.336 -0.720749 0
-891.715 -0.960536 0
-890.094 -1.19727 0
-888.475 -1.42956 0
-886.857 -1.65782 0
-885.242 -1.88132 0
-883.628 -2.10097 0
-882.016 -2.31617 0
-880.406 -2.52735 0
-878.795 -2.73268 0
-877.187 -2.9337 0
-875.58 -3.12882 0
-873.974 -3.32006 0
-872.369 -3.505 0
-870.766 -3.6839 0
-869.163 -3.85702 0
-867.559 -4.02502 0
-865.957 -4.18764 0
-864.356 -4.34458 0
-862.755 -4.4954 0
-861.154 -4.64118 0
-859.554 -4.77872 0
-857.955 -4.91302 0
-856.356 -5.0412 0
-854.756 -5.16221 0
-853.156 -5.27879 0
-851.557 -5.38894 0
-849.958 -5.49297 0
-848.359 -5.59151 0
-846.76 -5.68478 0
-845.16 -5.77301 0
-843.56 -5.8554 0
-841.959 -5.93124 0
-840.359 -6.0014 0
-838.758 -6.06718 0
-837.157 -6.12627 0
-835.555 -6.18167 0
-833.952 -6.23112 0
-832.35 -6.27497 0
-830.746 -6.31389 0
-829.142 -6.34853 0
-827.537 -6.37769 0
-825.932 -6.40199 0
-824.326 -6.4215 0
-822.718 -6.4378 0
-821.11 -6.44909 0
-819.502 -6.45704 0
-817.893 -6.46002 0
-816.283 -6.45943 0
-814.673 -6.45306 0
-813.06 -6.44528 0
-811.446 -6.4328 0
-809.833 -6.41521 0
-808.219 -6.39541 0
-806.604 -6.3724 0
-804.987 -6.34624 0
-803.37 -6.31817 0
-801.752 -6.28563 0
-800.132 -6.2515 0
-798.512 -6.21345 0
-796.892 -6.17308 0
-795.269 -6.12974 0
-793.645 -6.08442 0
-792.021 -6.03842 0
-790.396 -5.98902 0
-788.77 -5.93715 0
-787.143 -5.88367 0
-785.515 -5.82911 0
-783.887 -5.77281 0
-782.257 -5.71475 0
-780.626 -5.65562 0
-778.994 -5.59503 0
-777.361 -5.53276 0
-775.727 -5.4703 0
-774.094 -5.40682 0
-772.459 -5.34175 0
-770.823 -5.27805 0
-769.186 -5.21347 0
-767.548 -5.14517 0
-765.911 -5.07875 0
-764.271 -5.01145 0
-762.631 -4.94492 0
-760.992 -4.87765 0
-759.349 -4.81141 0
-757.707 -4.74411 0
-756.064 -4.67617 0
-754.42 -4.61035 0
-752.776 -4.54349 0
-751.131 -4.47779 0
-749.486 -4.41126 0
-747.841 -4.34713 0
-746.193 -4.28348 0
-744.546 -4.22048 0
-742.898 -4.15733 0
-741.249 -4.09515 0
-739.599 -4.03298 0
-737.951 -3.97284 0
-736.301 -3.91532 0
-734.652 -3.85563 0
-733.002 -3.79813 0
-731.35 -3.74123 0
-729.698 -3.68785 0
-728.047 -3.63429 0
-726.395 -3.58171 0
-724.743 -3.53117 0
-723.091 -3.47996 0
-721.436 -3.4313 0
-719.783 -3.38303 0
-718.129 -3.33692 0
-716.474 -3.2933 0
-714.82 -3.25274 0
-713.168 -3.20996 0
-711.513 -3.17018 0
-709.858 -3.13132 0
-708.203 -3.09463 0
-706.549 -3.05907 0
-704.894 -3.02607 0
-703.24 -2.99292 0
-701.585 -2.96278 0
-699.93 -2.93339 0
-698.273 -2.90592 0
-696.618 -2.87988 0
-694.963 -2.85659 0
-693.308 -2.83291 0
-691.652 -2.81248 0
-689.998 -2.79236 0
-688.344 -2.77339 0
-686.689 -2.75524 0
-685.034 -2.7413 0
-683.379 -2.7268 0
-681.724 -2.71389 0
-680.069 -2.7043 0
-678.413 -2.69617 0
-676.759 -2.68813 0
-675.106 -2.68324 0
-673.453 -2.67781 0
-671.797 -2.67453 0
-670.143 -2.67151 0
-668.491 -2.67012 0
-666.837 -2.67008 0
-665.184 -2.67208 0
-663.531 -2.67546 0
-661.877 -2.68162 0
-660.226 -2.68499 0
-658.572 -2.69107 0
-656.92 -2.69972 0
-655.266 -2.70953 0
-653.615 -2.71975 0
-651.964 -2.73259 0
-650.315 -2.74428 0
-648.664 -2.75576 0
-647.012 -2.76798 0
-645.361 -2.78231 0
-643.711 -2.79833 0
-642.061 -2.81401 0
-640.412 -2.83185 0
-638.762 -2.84915 0
-637.112 -2.86814 0
-635.464 -2.88708 0
-633.813 -2.90751 0
-632.165 -2.92834 0
-630.518 -2.9505 0
-628.87 -2.97027 0
-627.222 -2.99268 0
-625.577 -3.01692 0
-623.931 -3.03944 0
-622.281 -3.06437 0
-620.636 -3.08705 0
-618.99 -3.11153 0
-617.343 -3.13402 0
-615.697 -3.15852 0
-614.052 -3.1865 0
-612.408 -3.21228 0
-610.761 -3.23706 0
-609.118 -3.26556 0
-607.474 -3.28877 0
-605.828 -3.31781 0
-604.185 -3.34305 0
-602.542 -3.36933 0
-600.897 -3.39512 0
-599.253 -3.42334 0
-597.61 -3.44954 0
-595.966 -3.47725 0
-594.323 -3.50516 0
-592.681 -3.52996 0
-591.039 -3.55715 0
-589.395 -3.58052 0
-587.753 -3.60752 0
-586.111 -3.63289 0
-584.469 -3.65772 0
-582.829 -3.68439 0
-581.187 -3.70861 0
-579.546 -3.73282 0
-577.906 -3.75778 0
-576.263 -3.78419 0
-574.626 -3.80775 0
-572.985 -3.8303 0
-571.344 -3.85556 0
-569.705 -3.87761 0
-568.064 -3.90007 0
-566.424 -3.92295 0
-564.784 -3.94561 0
-563.143 -3.96725 0
-561.503 -3.98834 0
-559.864 -4.01061 0
-558.224 -4.02894 0
-556.585 -4.04969 0
-554.946 -4.07012 0
-553.307 -4.08589 0
-551.668 -4.10615 0
-550.029 -4.12346 0
-548.39 -4.13974 0
-546.751 -4.1574 0
-545.111 -4.17457 0
-543.472 -4.19144 0
-541.835 -4.20595 0
-540.196 -4.22031 0
-538.557 -4.23231 0
-536.919 -4.24647 0
-535.28 -4.2587 0
-533.643 -4.27264 0
-532.003 -4.28267 0
-530.365 -4.29108 0
-528.725 -4.30188 0
-527.089 -4.31342 0
-525.452 -4.32133 0
-523.811 -4.3316 0
-522.171 -4.34157 0
-520.534 -4.35144 0
-518.895 -4.35401 0
-517.258 -4.36247 0
-515.618 -4.36829 0
-513.978 -4.37516 0
-512.34 -4.37911 0
-510.702 -4.38632 0
-509.065 -4.38966 0
-507.428 -4.39061 0
-505.79 -4.39554 0
-504.148 -4.3986 0
-502.509 -4.39882 0
-500.871 -4.40205 0
-499.232 -4.40178 0
-497.595 -4.4027 0
-495.956 -4.40098 0
-494.316 -4.40014 0
-492.679 -4.39962 0
-491.039 -4.3985 0
-489.399 -4.39646 0
-487.761 -4.39557 0
-486.12 -4.39158 0
-484.48 -4.38862 0
-482.84 -4.38336 0
-481.201 -4.38139 0
-479.563 -4.37857 0
-477.924 -4.37426 0
-476.282 -4.36904 0
-474.643 -4.36285 0
-473.004 -4.35669 0
-471.364 -4.35247 0
-469.723 -4.34631 0
-468.081 -4.3381 0
-466.443 -4.33349 0
-464.802 -4.32678 0
-463.162 -4.31968 0
-461.524 -4.31003 0
-459.881 -4.30065 0
-458.241 -4.29168 0
-456.599 -4.28273 0
-454.961 -4.27415 0
-453.32 -4.26361 0
-451.679 -4.25434 0
-450.039 -4.24501 0
-448.398 -4.23534 0
-446.754 -4.22594 0
-445.114 -4.21647 0
-443.473 -4.20955 0
-441.833 -4.19596 0
-440.191 -4.18433 0
-438.547 -4.17392 0
-436.905 -4.16412 0
-435.264 -4.15149 0
-433.622 -4.14228 0
-431.981 -4.12909 0
-430.34 -4.12057 0
-428.697 -4.10966 0
-427.056 -4.09562 0
-425.414 -4.08458 0
-423.771 -4.0733 0
-422.13 -4.06071 0
-420.486 -4.04949 0
-418.844 -4.03721 0
-417.202 -4.028 0
-415.557 -4.01444 0
-413.916 -4.00456 0
-412.273 -3.99405 0
-410.632 -3.97946 0
-408.988 -3.96603 0
-407.346 -3.95765 0
-405.702 -3.94449 0
-404.059 -3.9336 0
-402.415 -3.92239 0
-400.773 -3.91224 0
-399.13 -3.89907 0
-397.488 -3.88836 0
-395.846 -3.87555 0
-394.201 -3.86361 0
-392.555 -3.85093 0
-390.913 -3.84198 0
-389.269 -3.83025 0
-387.628 -3.81796 0
-385.985 -3.80788 0
-384.343 -3.79613 0
-382.7 -3.7835 0
-381.058 -3.77548 0
-379.412 -3.76531 0
-377.769 -3.75313 0
-376.126 -3.74323 0
-374.483 -3.73384 0
-372.84 -3.72149 0
-371.196 -3.71319 0
-369.551 -3.70366 0
-367.906 -3.69365 0
-366.264 -3.68487 0
-364.621 -3.67522 0
-362.978 -3.66619 0
-361.334 -3.65994 0
-359.689 -3.64789 0
-358.045 -3.63771 0
-356.402 -3.63065 0
-354.758 -3.62074 0
-353.114 -3.61601 0
-351.469 -3.60715 0
-349.827 -3.60056 0
-348.182 -3.58892 0
-346.539 -3.58356 0
-344.895 -3.57596 0
-343.251 -3.56899 0
-341.606 -3.55996 0
-339.963 -3.55391 0
-338.321 -3.54712 0
-336.678 -3.54132 0
-335.033 -3.53155 0
-333.39 -3.52532 0
-331.746 -3.51815 0
-330.103 -3.51353 0
-328.458 -3.50435 0
-326.814 -3.50413 0
-325.169 -3.49654 0
-323.525 -3.48866 0
-321.882 -3.48447 0
-320.238 -3.4819 0
-318.593 -3.47921 0
-316.95 -3.4727 0
-315.308 -3.46845 0
-313.663 -3.46341 0
-312.015 -3.45836 0
-310.372 -3.45458 0
-308.73 -3.44967 0
-307.089 -3.44675 0
-305.446 -3.44313 0
-303.801 -3.43673 0
-302.158 -3.43372 0
-300.515 -3.42937 0
-298.872 -3.42702 0
-297.231 -3.42496 0
-295.586 -3.41955 0
-293.941 -3.41443 0
-292.297 -3.41232 0
-290.654 -3.41049 0
-289.011 -3.40726 0
-287.367 -3.4052 0
-285.726 -3.40378 0
-284.082 -3.39902 0
-282.44 -3.39794 0
-280.795 -3.394 0
-279.149 -3.39224 0
-277.507 -3.39254 0
-275.863 -3.38839 0
-274.218 -3.38777 0
-272.575 -3.38531 0
-270.934 -3.38509 0
-269.291 -3.38333 0
-267.649 -3.38226 0
-266.007 -3.38122 0
-264.363 -3.37973 0
-262.722 -3.38013 0
-261.078 -3.3777 0
-259.436 -3.37717 0
-257.793 -3.37526 0
-256.151 -3.3697 0
-254.507 -3.36891 0
-252.864 -3.36961 0
-251.222 -3.36711 0
-249.58 -3.36708 0
-247.938 -3.36611 0
-246.291 -3.36847 0
-244.647 -3.36643 0
-243.006 -3.3634 0
-241.363 -3.36383 0
-239.72 -3.36041 0
-238.075 -3.36018 0
-236.435 -3.36261 0
-234.796 -3.3646 0
-233.152 -3.36359 0
-231.51 -3.36263 0
-229.867 -3.36188 0
-228.223 -3.3631 0
-226.581 -3.36261 0
-224.939 -3.36244 0
-223.297 -3.36292 0
-221.654 -3.36215 0
-220.011 -3.35994 0
-218.369 -3.35633 0
-216.727 -3.35537 0
-215.085 -3.3563 0
-213.442 -3.35517 0
-211.798 -3.35473 0
-210.158 -3.35812 0
-208.516 -3.35612 0
-206.874 -3.35588 0
-205.232 -3.35407 0
-203.586 -3.3557 0
-201.944 -3.35427 0
-200.304 -3.35497 0
-198.66 -3.35512 0
-197.02 -3.35458 0
-195.378 -3.35667 0
-193.736 -3.35408 0
-192.094 -3.35428 0
-190.454 -3.35395 0
-188.812 -3.35667 0
-187.17 -3.35269 0
-185.528 -3.35575 0
-183.886 -3.3545 0
-182.24 -3.3542 0
-180.601 -3.35181 0
-178.959 -3.35285 0
-177.317 -3.34916 0
-175.676 -3.34749 0
-174.032 -3.34769 0
-172.391 -3.34713 0
-170.749 -3.34554 0
-169.105 -3.34458 0
-167.463 -3.34434 0
-165.821 -3.34297 0
-164.181 -3.34462 0
-162.539 -3.33941 0
-160.898 -3.3353 0
-159.258 -3.33396 0
-157.614 -3.33502 0
-155.973 -3.33517 0
-154.33 -3.33147 0
-152.69 -3.33035 0
-151.05 -3.33183 0
-149.407 -3.33375 0
-147.766 -3.33042 0
-146.121 -3.3317 0
-144.48 -3.32914 0
-142.836 -3.32907 0
-141.195 -3.32809 0
-139.553 -3.32971 0
-137.91 -3.32698 0
-136.272 -3.32501 0
-134.629 -3.32498 0
-132.985 -3.32237 0
-131.345 -3.32227 0
-129.702 -3.32164 0
-128.06 -3.31896 0
-126.419 -3.31664 0
-124.778 -3.31754 0
-123.132 -3.31436 0
-121.492 -3.31517 0
-119.849 -3.31443 0
-118.207 -3.31329 0
-116.567 -3.31192 0
-114.926 -3.31097 0
-113.283 -3.3063 0
-111.644 -3.30509 0
-110.001 -3.30766 0
-108.359 -3.30381 0
-106.716 -3.30469 0
-105.074 -3.30317 0
-103.434 -3.30318 0
-101.791 -3.3003 0
-100.151 -3.30047 0
-98.5106 -3.29489 0
-96.8672 -3.29409 0
-95.2264 -3.29429 0
-93.5826 -3.29266 0
-91.9397 -3.2932 0
-90.3004 -3.28874 0
-88.659 -3.28553 0
-87.0164 -3.28555 0
-85.3752 -3.28841 0
-83.734 -3.2865 0
-82.0923 -3.28488 0
-80.45 -3.28411 0
-78.81 -3.28202 0
-77.165 -3.2825 0
-75.5211 -3.28013 0
-73.8836 -3.28071 0
-72.2408 -3.27672 0
-70.5995 -3.27632 0
-68.9588 -3.27631 0
-67.3182 -3.27567 0
-65.6756 -3.27285 0
-64.0345 -3.26864 0
-62.3916 -3.27174 0
-60.7497 -3.26785 0
-59.1088 -3.26696 0
-57.4649 -3.26714 0
-55.8241 -3.26529 0
-54.1825 -3.26145 0
-52.5401 -3.26 0
-50.8926 -3.25897 0
-49.2507 -3.25872 0
-47.6077 -3.25742 0
-45.9694 -3.25795 0
-44.3286 -3.25958 0
-42.6888 -3.25831 0
-41.048 -3.25648 0
-39.4057 -3.2533 0
-37.7632 -3.24958 0
-36.1211 -3.25124 0
-34.4808 -3.25098 0
-32.8382 -3.24934 0
-31.1954 -3.24759 0
-29.5565 -3.24844 0
-27.9125 -3.25117 0
-26.2703 -3.24919 0
-24.6285 -3.24805 0
-22.9855 -3.24754 0
-21.3449 -3.24734 0
-19.7043 -3.24191 0
-18.0619 -3.24321 0
-16.4154 -3.24201 0
-14.7754 -3.2432 0
-13.1342 -3.2426 0
-11.4918 -3.24502 0
-9.85042 -3.24358 0
-8.21036 -3.24387 0
-6.57013 -3.2455 0
-4.92734 -3.24464 0
-3.28378 -3.24162 0
-1.64038 -3.24361 0
0 -3.24549 0
-1102.57 95.3571 0
-1102.55 87.3126 0
-1102.51 79.4721 0
-1102.44 71.9193 0
-1102.37 64.6786 0
-1102.33 57.7129 0
-1102.28 50.9822 0
-1102.19 44.5246 0
-1102.05 38.4029 0
-1101.9 32.6488 0
-1101.73 27.2686 0
-1101.54 22.2609 0
-1101.33 17.6187 0
-1101.1 13.3332 0
-1100.85 9.38959 0
-1100.56 5.77124 0
-1100.24 2.45824 0
-1099.88 -0.570273 0
-1099.48 -3.33404 0
-1099.04 -5.85183 0
-1098.56 -8.14244 0
-1098.04 -10.2219 0
-1097.48 -12.1063 0
-1096.88 -13.8092 0
-1096.24 -15.3437 0
-1095.57 -16.7209 0
-1094.87 -17.9518 0
-1094.13 -19.0454 0
-1093.36 -20.0101 0
-1092.56 -20.8534 0
-1091.73 -21.5822 0
-1090.87 -22.2028 0
-1089.99 -22.7208 0
-1089.08 -23.1412 0
-1088.14 -23.47 0
-1087.18 -23.7106 0
-1086.19 -23.8671 0
-1085.17 -23.9451 0
-1084.13 -23.948 0
-1083.07 -23.8792 0
-1081.98 -23.743 0
-1080.87 -23.5429 0
-1079.73 -23.2829 0
-1078.57 -22.9667 0
-1077.38 -22.5979 0
-1076.17 -22.1798 0
-1074.94 -21.7167 0
-1073.68 -21.2106 0
-1072.41 -20.6663 0
-1071.1 -20.0868 0
-1069.78 -19.4746 0
-1068.44 -18.8333 0
-1067.07 -18.1656 0
-1065.68 -17.4752 0
-1064.28 -16.7637 0
-1062.85 -16.0346 0
-1061.41 -15.2911 0
-1059.94 -14.534 0
-1058.46 -13.7671 0
-1056.96 -12.9925 0
-1055.45 -12.2119 0
-1053.92 -11.4274 0
-1052.37 -10.641 0
-1050.81 -9.85541 0
-1049.23 -9.07135 0
-1047.64 -8.29064 0
-1046.04 -7.51501 0
-1044.42 -6.74629 0
-1042.8 -5.98552 0
-1041.16 -5.23389 0
-1039.51 -4.49309 0
-1037.85 -3.76384 0
-1036.17 -3.04777 0
-1034.49 -2.34514 0
-1032.8 -1.65742 0
-1031.11 -0.985539 0
-1029.4 -0.330105 0
-1027.69 0.308248 0
-1025.97 0.928897 0
-1024.24 1.53106 0
-1022.51 2.11449 0
-1020.77 2.67899 0
-1019.03 3.2235 0
-1017.28 3.74769 0
-1015.53 4.25168 0
-1013.78 4.73455 0
-1012.02 5.1968 0
-1010.25 5.63836 0
-1008.49 6.05877 0
-1006.72 6.45736 0
-1004.95 6.83513 0
-1003.18 7.19136 0
-1001.41 7.52656 0
-999.632 7.84041 0
-997.857 8.13307 0
-996.081 8.4044 0
-994.305 8.65559 0
-992.529 8.8856 0
-990.753 9.09557 0
-988.978 9.28514 0
-987.203 9.45515 0
-985.429 9.60488 0
-983.656 9.73545 0
-981.884 9.84768 0
-980.115 9.94053 0
-978.346 10.0161 0
-976.579 10.0733 0
-974.815 10.1136 0
-973.052 10.1363 0
-971.292 10.1428 0
-969.534 10.133 0
-967.779 10.1075 0
-966.027 10.0669 0
-964.277 10.0117 0
-962.53 9.94182 0
-960.785 9.85899 0
-959.044 9.76275 0
-957.306 9.65394 0
-955.571 9.53282 0
-953.839 9.40013 0
-952.111 9.2555 0
-950.385 9.10118 0
-948.663 8.93619 0
-946.945 8.76083 0
-945.23 8.5768 0
-943.517 8.38466 0
-941.808 8.18472 0
-940.103 7.9761 0
-938.401 7.76138 0
-936.702 7.53909 0
-935.007 7.31129 0
-933.315 7.07766 0
-931.626 6.83851 0
-929.94 6.59489 0
-928.258 6.3477 0
-926.579 6.09666 0
-924.903 5.84136 0
-923.231 5.58404 0
-921.561 5.32399 0
-919.894 5.06194 0
-918.229 4.79807 0
-916.569 4.53293 0
-914.91 4.26768 0
-913.254 4.00137 0
-911.602 3.73544 0
-909.951 3.46944 0
-908.303 3.20478 0
-906.658 2.94033 0
-905.016 2.67744 0
-903.375 2.41648 0
-901.737 2.15675 0
-900.101 1.8998 0
-898.466 1.64491 0
-896.835 1.3924 0
-895.204 1.1437 0
-893.577 0.898452 0
-891.95 0.656432 0
-890.326 0.418507 0
-888.703 0.184794 0
-887.082 -0.045643 0
-885.463 -0.27093 0
-883.844 -0.49235 0
-882.227 -0.70869 0
-880.612 -0.920451 0
-878.997 -1.12772 0
-877.384 -1.32958 0
-875.772 -1.52616 0
-874.161 -1.71761 0
-872.551 -1.90383 0
-870.941 -2.08358 0
-869.332 -2.25747 0
-867.724 -2.42607 0
-866.116 -2.58892 0
-864.509 -2.74627 0
-862.902 -2.89785 0
-861.295 -3.04332 0
-859.69 -3.1827 0
-858.085 -3.31618 0
-856.479 -3.44449 0
-854.875 -3.56654 0
-853.27 -3.68299 0
-851.664 -3.79222 0
-850.059 -3.89725 0
-848.455 -3.99639 0
-846.85 -4.08873 0
-845.244 -4.17657 0
-843.639 -4.25849 0
-842.033 -4.33439 0
-840.427 -4.40443 0
-838.821 -4.4701 0
-837.214 -4.52913 0
-835.607 -4.5833 0
-834 -4.63206 0
-832.391 -4.67493 0
-830.783 -4.71391 0
-829.174 -4.74768 0
-827.564 -4.77701 0
-825.954 -4.79956 0
-824.344 -4.81925 0
-822.732 -4.8343 0
-821.121 -4.84442 0
-819.508 -4.85236 0
-817.894 -4.8548 0
-816.28 -4.85272 0
-814.665 -4.84619 0
-813.049 -4.837 0
-811.432 -4.82341 0
-809.815 -4.80588 0
-808.198 -4.78522 0
-806.579 -4.76164 0
-804.96 -4.73418 0
-803.339 -4.70461 0
-801.717 -4.67207 0
-800.096 -4.6371 0
-798.473 -4.59801 0
-796.85 -4.55597 0
-795.225 -4.51247 0
-793.6 -4.46634 0
-791.974 -4.41781 0
-790.346 -4.36821 0
-788.718 -4.31591 0
-787.09 -4.26253 0
-785.46 -4.20651 0
-783.83 -4.1492 0
-782.199 -4.08978 0
-780.566 -4.02968 0
-778.933 -3.96854 0
-777.299 -3.90542 0
-775.665 -3.84193 0
-774.031 -3.77792 0
-772.394 -3.71273 0
-770.758 -3.6482 0
-769.121 -3.58186 0
-767.482 -3.514 0
-765.843 -3.44656 0
-764.205 -3.37919 0
-762.564 -3.31114 0
-760.924 -3.24321 0
-759.282 -3.1755 0
-757.641 -3.10783 0
-755.998 -3.04003 0
-754.354 -2.97286 0
-752.71 -2.9054 0
-751.065 -2.83844 0
-749.42 -2.77289 0
-747.776 -2.70732 0
-746.129 -2.64309 0
-744.483 -2.57933 0
-742.836 -2.51522 0
-741.189 -2.45242 0
-739.54 -2.3909 0
-737.891 -2.33043 0
-736.243 -2.27132 0
-734.594 -2.21249 0
-732.944 -2.15425 0
-731.295 -2.09772 0
-729.646 -2.0428 0
-727.995 -1.98861 0
-726.343 -1.93641 0
-724.693 -1.88421 0
-723.041 -1.83407 0
-721.389 -1.78456 0
-719.736 -1.73655 0
-718.084 -1.69 0
-716.432 -1.64645 0
-714.78 -1.60459 0
-713.127 -1.56312 0
-711.474 -1.52132 0
-709.821 -1.48297 0
-708.167 -1.44704 0
-706.514 -1.41164 0
-704.862 -1.37793 0
-703.209 -1.34633 0
-701.555 -1.31477 0
-699.901 -1.28556 0
-698.248 -1.25789 0
-696.593 -1.23155 0
-694.939 -1.20782 0
-693.286 -1.18468 0
-691.633 -1.16368 0
-689.979 -1.14359 0
-688.325 -1.12488 0
-686.672 -1.10788 0
-685.019 -1.09318 0
-683.365 -1.079 0
-681.712 -1.06712 0
-680.059 -1.0569 0
-678.407 -1.04792 0
-676.753 -1.04022 0
-675.1 -1.03582 0
-673.447 -1.02967 0
-671.794 -1.02617 0
-670.142 -1.02536 0
-668.49 -1.02388 0
-666.838 -1.02371 0
-665.185 -1.02557 0
-663.534 -1.02966 0
-661.882 -1.03421 0
-660.23 -1.04048 0
-658.579 -1.04588 0
-656.928 -1.0541 0
-655.277 -1.06384 0
-653.626 -1.07465 0
-651.976 -1.08666 0
-650.326 -1.09951 0
-648.675 -1.11074 0
-647.025 -1.12417 0
-645.375 -1.13873 0
-643.727 -1.15492 0
-642.077 -1.17154 0
-640.429 -1.18861 0
-638.781 -1.20665 0
-637.131 -1.22653 0
-635.483 -1.24453 0
-633.834 -1.26595 0
-632.187 -1.287 0
-630.539 -1.30878 0
-628.892 -1.32965 0
-627.245 -1.35252 0
-625.599 -1.37594 0
-623.952 -1.39845 0
-622.306 -1.42187 0
-620.66 -1.44662 0
-619.014 -1.47123 0
-617.368 -1.49556 0
-615.722 -1.52145 0
-614.077 -1.54804 0
-612.433 -1.57284 0
-610.788 -1.59935 0
-609.143 -1.62623 0
-607.499 -1.6516 0
-605.855 -1.67896 0
-604.211 -1.70547 0
-602.568 -1.73184 0
-600.924 -1.75795 0
-599.28 -1.78564 0
-597.636 -1.81172 0
-595.993 -1.84006 0
-594.349 -1.86794 0
-592.707 -1.89363 0
-591.064 -1.91921 0
-589.421 -1.94519 0
-587.779 -1.97157 0
-586.137 -1.99813 0
-584.495 -2.02233 0
-582.853 -2.04874 0
-581.211 -2.07343 0
-579.571 -2.09915 0
-577.929 -2.12325 0
-576.289 -2.14912 0
-574.647 -2.17301 0
-573.008 -2.19679 0
-571.367 -2.22097 0
-569.726 -2.24321 0
-568.085 -2.2665 0
-566.445 -2.28908 0
-564.805 -2.31175 0
-563.165 -2.33447 0
-561.525 -2.35427 0
-559.884 -2.37593 0
-558.244 -2.3959 0
-556.605 -2.41785 0
-554.966 -2.43527 0
-553.326 -2.45334 0
-551.686 -2.47167 0
-550.046 -2.49004 0
-548.407 -2.50682 0
-546.768 -2.52439 0
-545.129 -2.54053 0
-543.488 -2.5578 0
-541.848 -2.57255 0
-540.209 -2.58642 0
-538.57 -2.60052 0
-536.931 -2.61393 0
-535.292 -2.62695 0
-533.653 -2.63899 0
-532.014 -2.65075 0
-530.375 -2.66088 0
-528.738 -2.67091 0
-527.099 -2.68061 0
-525.458 -2.68869 0
-523.82 -2.69918 0
-522.181 -2.70858 0
-520.541 -2.71753 0
-518.901 -2.7217 0
-517.263 -2.73052 0
-515.624 -2.73478 0
-513.985 -2.74207 0
-512.346 -2.74755 0
-510.709 -2.75163 0
-509.068 -2.75657 0
-507.43 -2.75891 0
-505.79 -2.76227 0
-504.15 -2.76484 0
-502.512 -2.76691 0
-500.871 -2.76825 0
-499.232 -2.76842 0
-497.593 -2.76791 0
-495.954 -2.76876 0
-494.316 -2.76726 0
-492.676 -2.76632 0
-491.036 -2.76495 0
-489.398 -2.7638 0
-487.756 -2.76139 0
-486.116 -2.7583 0
-484.476 -2.7535 0
-482.837 -2.75163 0
-481.198 -2.74802 0
-479.558 -2.74563 0
-477.919 -2.74133 0
-476.277 -2.73423 0
-474.638 -2.73005 0
-472.996 -2.72406 0
-471.356 -2.71738 0
-469.716 -2.71156 0
-468.076 -2.70478 0
-466.435 -2.69792 0
-464.795 -2.69128 0
-463.155 -2.68464 0
-461.513 -2.67375 0
-459.871 -2.66587 0
-458.232 -2.6578 0
-456.591 -2.64748 0
-454.951 -2.63959 0
-453.31 -2.63029 0
-451.67 -2.62134 0
-450.029 -2.61191 0
-448.387 -2.60092 0
-446.746 -2.59274 0
-445.106 -2.58419 0
-443.464 -2.5735 0
-441.823 -2.56137 0
-440.179 -2.54832 0
-438.538 -2.53775 0
-436.895 -2.52808 0
-435.253 -2.51611 0
-433.612 -2.50573 0
-431.969 -2.4945 0
-430.328 -2.4855 0
-428.688 -2.47362 0
-427.044 -2.46056 0
-425.402 -2.44875 0
-423.76 -2.43824 0
-422.117 -2.42358 0
-420.475 -2.41265 0
-418.834 -2.40298 0
-417.191 -2.39149 0
-415.547 -2.37817 0
-413.904 -2.3688 0
-412.261 -2.35753 0
-410.618 -2.34429 0
-408.976 -2.33275 0
-407.334 -2.32041 0
-405.691 -2.30794 0
-404.048 -2.29645 0
-402.405 -2.28542 0
-400.762 -2.27563 0
-399.12 -2.26277 0
-397.476 -2.24986 0
-395.833 -2.23762 0
-394.191 -2.22646 0
-392.546 -2.21389 0
-390.902 -2.20343 0
-389.259 -2.19295 0
-387.616 -2.18108 0
-385.975 -2.17113 0
-384.331 -2.15945 0
-382.687 -2.14783 0
-381.045 -2.13715 0
-379.402 -2.12781 0
-377.759 -2.11578 0
-376.116 -2.10574 0
-374.473 -2.09525 0
-372.829 -2.08428 0
-371.185 -2.07434 0
-369.542 -2.0651 0
-367.897 -2.05665 0
-366.253 -2.04757 0
-364.611 -2.03811 0
-362.967 -2.02915 0
-361.324 -2.02127 0
-359.68 -2.01009 0
-358.037 -2.0005 0
-356.394 -1.99251 0
-354.749 -1.98307 0
-353.106 -1.97932 0
-351.463 -1.96941 0
-349.818 -1.96234 0
-348.175 -1.95176 0
-346.53 -1.94559 0
-344.888 -1.93745 0
-343.243 -1.93055 0
-341.6 -1.92288 0
-339.956 -1.91754 0
-338.313 -1.91056 0
-336.67 -1.90287 0
-335.026 -1.89496 0
-333.384 -1.88783 0
-331.739 -1.88223 0
-330.096 -1.87525 0
-328.453 -1.87022 0
-326.81 -1.8652 0
-325.165 -1.85739 0
-323.52 -1.85329 0
-321.877 -1.84721 0
-320.233 -1.84249 0
-318.591 -1.84031 0
-316.945 -1.83489 0
-315.302 -1.8301 0
-313.657 -1.82439 0
-312.012 -1.81903 0
-310.37 -1.8171 0
-308.726 -1.81101 0
-307.082 -1.81071 0
-305.44 -1.80608 0
-303.796 -1.80092 0
-302.155 -1.79654 0
-300.511 -1.79228 0
-298.87 -1.791 0
-297.226 -1.78657 0
-295.582 -1.78267 0
-293.939 -1.77764 0
-292.296 -1.77604 0
-290.652 -1.77428 0
-289.009 -1.77105 0
-287.365 -1.76852 0
-285.722 -1.76512 0
-284.079 -1.76265 0
-282.436 -1.76129 0
-280.792 -1.75653 0
-279.149 -1.7567 0
-277.504 -1.75587 0
-275.862 -1.75043 0
-274.218 -1.74925 0
-272.576 -1.74889 0
-270.934 -1.74714 0
-269.292 -1.74581 0
-267.65 -1.74539 0
-266.005 -1.74143 0
-264.362 -1.74197 0
-262.72 -1.74142 0
-261.076 -1.74111 0
-259.433 -1.7398 0
-257.79 -1.73745 0
-256.148 -1.73401 0
-254.506 -1.7336 0
-252.862 -1.73149 0
-251.219 -1.73075 0
-249.577 -1.73011 0
-247.935 -1.72917 0
-246.292 -1.7295 0
-244.648 -1.72875 0
-243.005 -1.72686 0
-241.361 -1.72613 0
-239.719 -1.7248 0
-238.078 -1.72497 0
-236.434 -1.72721 0
-234.793 -1.72714 0
-233.151 -1.72755 0
-231.51 -1.72553 0
-229.867 -1.72477 0
-228.224 -1.7258 0
-226.58 -1.72632 0
-224.939 -1.72758 0
-223.296 -1.72443 0
-221.653 -1.72363 0
-220.011 -1.72384 0
-218.366 -1.72189 0
-216.725 -1.72008 0
-215.085 -1.72021 0
-213.441 -1.72123 0
-211.8 -1.71952 0
-210.158 -1.7218 0
-208.515 -1.71956 0
-206.872 -1.72016 0
-205.23 -1.71723 0
-203.589 -1.7195 0
-201.947 -1.71947 0
-200.304 -1.7186 0
-198.662 -1.71871 0
-197.02 -1.72023 0
-195.378 -1.71999 0
-193.735 -1.71941 0
-192.095 -1.7189 0
-190.455 -1.71792 0
-188.813 -1.71817 0
-187.168 -1.71845 0
-185.526 -1.71787 0
-183.882 -1.71767 0
-182.242 -1.71857 0
-180.6 -1.71749 0
-178.958 -1.71692 0
-177.315 -1.71373 0
-175.674 -1.71308 0
-174.034 -1.71161 0
-172.39 -1.71107 0
-170.746 -1.70913 0
-169.104 -1.70706 0
-167.465 -1.70901 0
-165.823 -1.70712 0
-164.18 -1.70837 0
-162.538 -1.70442 0
-160.896 -1.70101 0
-159.257 -1.70083 0
-157.615 -1.69877 0
-155.971 -1.70024 0
-154.329 -1.69568 0
-152.688 -1.69493 0
-151.047 -1.696 0
-149.404 -1.69846 0
-147.764 -1.69358 0
-146.123 -1.69565 0
-144.48 -1.69321 0
-142.836 -1.69397 0
-141.195 -1.6943 0
-139.553 -1.69247 0
-137.91 -1.69176 0
-136.268 -1.68974 0
-134.628 -1.68689 0
-132.986 -1.68679 0
-131.345 -1.68505 0
-129.701 -1.68497 0
-128.06 -1.68536 0
-126.418 -1.68184 0
-124.774 -1.67974 0
-123.134 -1.67862 0
-121.492 -1.67802 0
-119.85 -1.67801 0
-118.206 -1.6773 0
-116.563 -1.67771 0
-114.923 -1.67461 0
-113.283 -1.67342 0
-111.642 -1.66961 0
-109.999 -1.66984 0
-108.357 -1.67021 0
-106.716 -1.66748 0
-105.073 -1.66768 0
-103.432 -1.66615 0
-101.79 -1.66462 0
-100.148 -1.66396 0
-98.5071 -1.66114 0
-96.867 -1.65838 0
-95.2255 -1.65701 0
-93.5841 -1.65705 0
-91.9417 -1.65766 0
-90.2999 -1.65376 0
-88.6589 -1.65112 0
-87.0151 -1.64825 0
-85.3744 -1.64998 0
-83.7331 -1.65076 0
-82.0904 -1.65051 0
-80.448 -1.65013 0
-78.8049 -1.64669 0
-77.1664 -1.64592 0
-75.5242 -1.64501 0
-73.8817 -1.64306 0
-72.2405 -1.64133 0
-70.5993 -1.64159 0
-68.9562 -1.64103 0
-67.3147 -1.64055 0
-65.6723 -1.63827 0
-64.032 -1.63596 0
-62.3909 -1.63474 0
-60.7485 -1.63243 0
-59.1071 -1.63242 0
-57.4652 -1.63201 0
-55.8222 -1.62956 0
-54.1793 -1.62504 0
-52.5376 -1.62586 0
-50.8957 -1.62337 0
-49.2517 -1.62237 0
-47.6104 -1.625 0
-45.9707 -1.6243 0
-44.3266 -1.6248 0
-42.6859 -1.62351 0
-41.045 -1.62067 0
-39.4037 -1.61881 0
-37.7612 -1.61716 0
-36.1213 -1.61452 0
-34.4793 -1.61657 0
-32.839 -1.61249 0
-31.1974 -1.61166 0
-29.5553 -1.61305 0
-27.914 -1.61407 0
-26.2702 -1.61313 0
-24.63 -1.6108 0
-22.9897 -1.61149 0
-21.3457 -1.60964 0
-19.7028 -1.60902 0
-18.0607 -1.60603 0
-16.4183 -1.60641 0
-14.7753 -1.60928 0
-13.1361 -1.60787 0
-11.4957 -1.60857 0
-9.85148 -1.60872 0
-8.21166 -1.6086 0
-6.56783 -1.61064 0
-4.92631 -1.60823 0
-3.285 -1.6081 0
-1.64253 -1.60979 0
0 -1.61233 0
-1110.92 95.8605 0
-1110.5 87.6429 0
-1110.21 79.8274 0
-1109.89 72.2887 0
-1109.56 65.0263 0
-1109.23 58.0359 0
-1108.88 51.3283 0
-1108.49 44.9155 0
-1108.04 38.8231 0
-1107.55 33.0825 0
-1107.03 27.7114 0
-1106.49 22.7115 0
-1105.93 18.0791 0
-1105.36 13.805 0
-1104.77 9.87583 0
-1104.16 6.27477 0
-1103.54 2.98204 0
-1102.9 -0.0228932 0
-1102.24 -2.76084 0
-1101.56 -5.25094 0
-1100.85 -7.51288 0
-1100.12 -9.56296 0
-1099.37 -11.418 0
-1098.59 -13.0923 0
-1097.78 -14.5984 0
-1096.95 -15.9479 0
-1096.1 -17.1524 0
-1095.22 -18.2197 0
-1094.32 -19.1591 0
-1093.4 -19.9778 0
-1092.46 -20.6822 0
-1091.49 -21.2791 0
-1090.51 -21.7736 0
-1089.5 -22.1713 0
-1088.47 -22.4769 0
-1087.42 -22.6946 0
-1086.35 -22.8286 0
-1085.26 -22.8838 0
-1084.15 -22.8639 0
-1083.01 -22.7726 0
-1081.86 -22.6138 0
-1080.68 -22.3915 0
-1079.49 -22.1091 0
-1078.27 -21.7708 0
-1077.03 -21.3798 0
-1075.78 -20.9405 0
-1074.5 -20.4552 0
-1073.2 -19.9282 0
-1071.88 -19.363 0
-1070.55 -18.7628 0
-1069.19 -18.1304 0
-1067.82 -17.4693 0
-1066.43 -16.7825 0
-1065.02 -16.0729 0
-1063.59 -15.343 0
-1062.15 -14.5964 0
-1060.69 -13.8349 0
-1059.22 -13.0608 0
-1057.72 -12.2778 0
-1056.22 -11.487 0
-1054.7 -10.6913 0
-1053.16 -9.89209 0
-1051.61 -9.09125 0
-1050.05 -8.29146 0
-1048.48 -7.49445 0
-1046.89 -6.70096 0
-1045.29 -5.91338 0
-1043.68 -5.13309 0
-1042.06 -4.36098 0
-1040.43 -3.59883 0
-1038.79 -2.84793 0
-1037.14 -2.10935 0
-1035.48 -1.3836 0
-1033.82 -0.672766 0
-1032.14 0.0231307 0
-1030.46 0.702945 0
-1028.77 1.3655 0
-1027.07 2.01039 0
-1025.37 2.63742 0
-1023.66 3.2455 0
-1021.95 3.83465 0
-1020.23 4.40416 0
-1018.51 4.95301 0
-1016.78 5.48167 0
-1015.05 5.98939 0
-1013.31 6.47615 0
-1011.57 6.9418 0
-1009.83 7.38617 0
-1008.09 7.80893 0
-1006.34 8.21003 0
-1004.59 8.58966 0
-1002.84 8.94731 0
-1001.09 9.2835 0
-999.332 9.59827 0
-997.577 9.89147 0
-995.822 10.1638 0
-994.066 10.4149 0
-992.31 10.6449 0
-990.554 10.8546 0
-988.798 11.0437 0
-987.043 11.2129 0
-985.288 11.3619 0
-983.534 11.4921 0
-981.78 11.6025 0
-980.028 11.6944 0
-978.277 11.7682 0
-976.528 11.8238 0
-974.78 11.8615 0
-973.034 11.8825 0