<?xml version="1.0"?>
<VTKFile type="StructuredGrid"  version="0.1" byte_order="LittleEndian" compressor="vtkZLibDataCompressor">
  <StructuredGrid WholeExtent="0 700 0 30 0 0">
    <Piece Extent="0 700 0 30 0 0">
      <PointData Vectors="Velocity">
        <DataArray type="Float32" Name="Velocity" NumberOfComponents="3" format="ascii">
-1089.56 61.2727 0
-1089.76 54.5943 0
-1090.02 48.0988 0
-1090.32 41.9081 0
-1090.6 36.0562 0
-1090.8 30.4666 0
-1091.01 25.0807 0
-1091.27 19.9757 0
-1091.53 15.2366 0
-1091.78 10.8859 0
-1091.99 6.91886 0
-1092.17 3.32589 0
-1092.32 0.0942315 0
-1092.41 -2.79256 0
-1092.44 -5.35625 0
-1092.41 -7.61863 0
-1092.31 -9.60402 0
-1092.13 -11.3355 0
-1091.88 -12.8354 0
-1091.56 -14.1249 0
-1091.16 -15.2233 0
-1090.7 -16.1489 0
-1090.17 -16.9188 0
-1089.58 -17.5471 0
-1088.93 -18.0474 0
-1088.23 -18.4319 0
-1087.47 -18.7121 0
-1086.67 -18.898 0
-1085.82 -18.9972 0
-1084.92 -19.0189 0
-1083.99 -18.9688 0
-1083.02 -18.8546 0
-1082.01 -18.6815 0
-1080.97 -18.4547 0
-1079.89 -18.1788 0
-1078.79 -17.8589 0
-1077.64 -17.4981 0
-1076.47 -17.1016 0
-1075.27 -16.6722 0
-1074.04 -16.2135 0
-1072.78 -15.7288 0
-1071.49 -15.2217 0
-1070.18 -14.6952 0
-1068.84 -14.1525 0
-1067.48 -13.5958 0
-1066.09 -13.0284 0
-1064.67 -12.4522 0
-1063.24 -11.8708 0
-1061.78 -11.2865 0
-1060.3 -10.7001 0
-1058.8 -10.1145 0
-1057.28 -9.53244 0
-1055.74 -8.95485 0
-1054.18 -8.38325 0
-1052.61 -7.81982 0
-1051.02 -7.26625 0
-1049.42 -6.72353 0
-1047.8 -6.19288 0
-1046.17 -5.6762 0
-1044.52 -5.1729 0
-1042.86 -4.68578 0
-1041.2 -4.21425 0
-1039.52 -3.76011 0
-1037.83 -3.323 0
-1036.14 -2.9044 0
-1034.44 -2.50422 0
-1032.73 -2.12318 0
-1031.01 -1.76127 0
-1029.29 -1.41931 0
-1027.56 -1.0973 0
-1025.83 -0.794791 0
-1024.09 -0.512798 0
-1022.35 -0.250097 0
-1020.61 -0.00791464 0
-1018.87 0.215019 0
-1017.12 0.417619 0
-1015.37 0.601918 0
-1013.62 0.766844 0
-1011.87 0.913208 0
-1010.13 1.0403 0
-1008.38 1.15002 0
-1006.63 1.24108 0
-1004.88 1.31544 0
-1003.14 1.37228 0
-1001.39 1.41359 0
-999.651 1.43857 0
-997.911 1.44839 0
-996.174 1.44272 0
-994.44 1.42351 0
-992.708 1.3906 0
-990.98 1.34379 0
-989.255 1.28466 0
-987.534 1.21429 0
-985.817 1.13173 0
-984.102 1.03867 0
-982.392 0.936167 0
-980.686 0.823649 0
-978.983 0.702969 0
-977.285 0.573548 0
-975.591 0.436788 0
-973.901 0.293058 0
-972.215 0.142675 0
-970.533 -0.0136315 0
-968.855 -0.17526 0
-967.18 -0.341089 0
-965.511 -0.511714 0
-963.845 -0.685409 0
-962.183 -0.862045 0
-960.525 -1.04113 0
-958.87 -1.22229 0
-957.221 -1.40563 0
-955.575 -1.5905 0
-953.931 -1.77414 0
-952.292 -1.95915 0
-950.656 -2.14445 0
-949.023 -2.32775 0
-947.393 -2.51091 0
-945.766 -2.69135 0
-944.143 -2.87047 0
-942.521 -3.04769 0
-940.904 -3.22233 0
-939.288 -3.39382 0
-937.674 -3.56242 0
-936.064 -3.72817 0
-934.455 -3.89071 0
-932.85 -4.04821 0
-931.246 -4.20163 0
-929.643 -4.35074 0
-928.043 -4.49573 0
-926.443 -4.63585 0
-924.846 -4.77248 0
-923.25 -4.90299 0
-921.656 -5.02783 0
-920.062 -5.148 0
-918.469 -5.26271 0
-916.877 -5.37308 0
-915.286 -5.47638 0
-913.695 -5.57546 0
-912.106 -5.66962 0
-910.516 -5.75823 0
-908.928 -5.84056 0
-907.34 -5.9176 0
-905.751 -5.99059 0
-904.163 -6.0571 0
-902.575 -6.11873 0
-900.987 -6.17523 0
-899.397 -6.22443 0
-897.808 -6.27092 0
-896.22 -6.31134 0
-894.63 -6.34748 0
-893.041 -6.37866 0
-891.45 -6.40467 0
-889.859 -6.4274 0
-888.268 -6.44318 0
-886.676 -6.45565 0
-885.084 -6.46439 0
-883.49 -6.46793 0
-881.896 -6.46812 0
-880.301 -6.4642 0
-878.705 -6.457 0
-877.108 -6.44632 0
-875.51 -6.43162 0
-873.912 -6.41366 0
-872.312 -6.39255 0
-870.712 -6.36898 0
-869.111 -6.34299 0
-867.508 -6.313 0
-865.905 -6.28029 0
-864.3 -6.24618 0
-862.694 -6.20845 0
-861.088 -6.17132 0
-859.479 -6.12879 0
-857.871 -6.08747 0
-856.261 -6.04313 0
-854.65 -5.99724 0
-853.037 -5.94924 0
-851.424 -5.90064 0
-849.81 -5.85118 0
-848.194 -5.80132 0
-846.579 -5.75022 0
-844.962 -5.69897 0
-843.344 -5.64606 0
-841.725 -5.59247 0
-840.106 -5.53909 0
-838.484 -5.48488 0
-836.862 -5.43182 0
-835.239 -5.37914 0
-833.616 -5.32438 0
-831.992 -5.2712 0
-830.367 -5.21813 0
-828.741 -5.1653 0
-827.114 -5.11236 0
-825.487 -5.05967 0
-823.859 -5.01152 0
-822.23 -4.96128 0
-820.601 -4.91371 0
-818.972 -4.86583 0
-817.343 -4.81672 0
-815.712 -4.77035 0
-814.08 -4.72435 0
-812.448 -4.68275 0
-810.816 -4.63865 0
-809.183 -4.598 0
-807.55 -4.55798 0
-805.916 -4.51999 0
-804.283 -4.48314 0
-802.649 -4.44766 0
-801.016 -4.41299 0
-799.381 -4.38112 0
-797.747 -4.34955 0
-796.111 -4.31989 0
-794.476 -4.29179 0
-792.839 -4.26459 0
-791.204 -4.23899 0
-789.567 -4.21659 0
-787.93 -4.19415 0
-786.295 -4.17296 0
-784.659 -4.15421 0
-783.023 -4.13775 0
-781.386 -4.12211 0
-779.75 -4.10763 0
-778.116 -4.09434 0
-776.48 -4.08294 0
-774.844 -4.07322 0
-773.209 -4.06489 0
-771.573 -4.05833 0
-769.938 -4.05272 0
-768.302 -4.04846 0
-766.668 -4.04458 0
-765.032 -4.04199 0
-763.397 -4.04225 0
-761.763 -4.04357 0
-760.128 -4.0447 0
-758.494 -4.04715 0
-756.86 -4.05252 0
-755.226 -4.05722 0
-753.594 -4.06396 0
-751.96 -4.07208 0
-750.328 -4.08102 0
-748.696 -4.09037 0
-747.065 -4.10019 0
-745.433 -4.11077 0
-743.801 -4.12141 0
-742.168 -4.13491 0
-740.537 -4.14705 0
-738.906 -4.16354 0
-737.275 -4.17653 0
-735.645 -4.19236 0
-734.014 -4.21043 0
-732.383 -4.2272 0
-730.754 -4.24415 0
-729.127 -4.2619 0
-727.498 -4.27999 0
-725.869 -4.29851 0
-724.24 -4.31729 0
-722.613 -4.33806 0
-720.986 -4.35596 0
-719.358 -4.37626 0
-717.729 -4.3954 0
-716.105 -4.41766 0
-714.477 -4.43576 0
-712.851 -4.45677 0
-711.226 -4.47723 0
-709.601 -4.49846 0
-707.977 -4.517 0
-706.351 -4.53577 0
-704.725 -4.55683 0
-703.1 -4.57657 0
-701.475 -4.59737 0
-699.851 -4.61902 0
-698.227 -4.63953 0
-696.604 -4.65706 0
-694.98 -4.67747 0
-693.356 -4.6972 0
-691.733 -4.71546 0
-690.109 -4.73303 0
-688.488 -4.75156 0
-686.866 -4.76972 0
-685.243 -4.78644 0
-683.62 -4.80355 0
-681.998 -4.81891 0
-680.375 -4.83665 0
-678.753 -4.85235 0
-677.131 -4.8666 0
-675.509 -4.8831 0
-673.886 -4.89758 0
-672.264 -4.91244 0
-670.642 -4.92779 0
-669.021 -4.94076 0
-667.4 -4.95279 0
-665.778 -4.96587 0
-664.156 -4.97707 0
-662.536 -4.98928 0
-660.915 -5.00026 0
-659.293 -5.01147 0
-657.672 -5.02022 0
-656.05 -5.0317 0
-654.429 -5.04103 0
-652.809 -5.04809 0
-651.19 -5.05742 0
-649.568 -5.0653 0
-647.946 -5.07152 0
-646.326 -5.08004 0
-644.704 -5.08476 0
-643.084 -5.09163 0
-641.463 -5.09418 0
-639.841 -5.10084 0
-638.22 -5.10724 0
-636.599 -5.10985 0
-634.979 -5.11211 0
-633.358 -5.11633 0
-631.736 -5.11874 0
-630.115 -5.12163 0
-628.493 -5.12305 0
-626.871 -5.12355 0
-625.248 -5.12412 0
-623.629 -5.12573 0
-622.007 -5.12577 0
-620.385 -5.12598 0
-618.762 -5.12611 0
-617.141 -5.1249 0
-615.516 -5.12362 0
-613.894 -5.12099 0
-612.273 -5.12024 0
-610.652 -5.11906 0
-609.028 -5.11433 0
-607.408 -5.11219 0
-605.784 -5.11055 0
-604.162 -5.10611 0
-602.538 -5.10486 0
-600.915 -5.10021 0
-599.292 -5.09484 0
-597.669 -5.08902 0
-596.047 -5.08625 0
-594.424 -5.08167 0
-592.799 -5.07709 0
-591.177 -5.0744 0
-589.553 -5.06892 0
-587.929 -5.06097 0
-586.305 -5.05779 0
-584.682 -5.05252 0
-583.058 -5.04748 0
-581.434 -5.04091 0
-579.81 -5.03554 0
-578.187 -5.03268 0
-576.563 -5.02651 0
-574.938 -5.01919 0
-573.312 -5.0114 0
-571.686 -5.00585 0
-570.062 -5.00083 0
-568.437 -4.99611 0
-566.812 -4.98985 0
-565.189 -4.98345 0
-563.566 -4.97923 0
-561.941 -4.9738 0
-560.316 -4.96721 0
-558.692 -4.96211 0
-557.065 -4.95855 0
-555.44 -4.95198 0
-553.816 -4.94706 0
-552.191 -4.9415 0
-550.565 -4.93641 0
-548.939 -4.93075 0
-547.315 -4.92735 0
-545.69 -4.92139 0
-544.066 -4.91691 0
-542.439 -4.911 0
-540.812 -4.90711 0
-539.188 -4.90271 0
-537.562 -4.8972 0
-535.937 -4.8935 0
-534.312 -4.89013 0
-532.687 -4.88631 0
-531.06 -4.88125 0
-529.434 -4.87769 0
-527.81 -4.8752 0
-526.183 -4.8706 0
-524.56 -4.86603 0
-522.935 -4.86426 0
-521.308 -4.8611 0
-519.682 -4.85675 0
-518.058 -4.85537 0
-516.432 -4.85165 0
-514.808 -4.84699 0
-513.182 -4.84691 0
-511.556 -4.84645 0
-509.933 -4.844 0
-508.307 -4.84078 0
-506.683 -4.8398 0
-505.057 -4.84011 0
-503.432 -4.83479 0
-501.805 -4.833 0
-500.179 -4.83178 0
-498.553 -4.83052 0
-496.928 -4.82862 0
-495.302 -4.82498 0
-493.677 -4.82641 0
-492.05 -4.82256 0
-490.425 -4.82378 0
-488.8 -4.82261 0
-487.176 -4.82246 0
-485.551 -4.82183 0
-483.927 -4.8211 0
-482.301 -4.82094 0
-480.676 -4.82313 0
-479.051 -4.82379 0
-477.425 -4.82026 0
-475.799 -4.82228 0
-474.174 -4.82443 0
-472.547 -4.82479 0
-470.922 -4.82405 0
-469.298 -4.82676 0
-467.673 -4.82552 0
-466.048 -4.82625 0
-464.423 -4.82654 0
-462.798 -4.82744 0
-461.174 -4.82861 0
-459.546 -4.82834 0
-457.92 -4.83147 0
-456.295 -4.83373 0
-454.669 -4.83371 0
-453.045 -4.83645 0
-451.422 -4.83851 0
-449.798 -4.83909 0
-448.173 -4.84033 0
-446.548 -4.84037 0
-444.923 -4.84355 0
-443.297 -4.84427 0
-441.672 -4.84633 0
-440.049 -4.84617 0
-438.426 -4.84919 0
-436.798 -4.84953 0
-435.173 -4.85238 0
-433.548 -4.85374 0
-431.923 -4.85578 0
-430.299 -4.85664 0
-428.674 -4.86014 0
-427.047 -4.86301 0
-425.424 -4.86485 0
-423.801 -4.86975 0
-422.177 -4.86838 0
-420.553 -4.86904 0
-418.932 -4.86824 0
-417.307 -4.87151 0
-415.681 -4.87254 0
-414.057 -4.87384 0
-412.432 -4.87587 0
-410.808 -4.87878 0
-409.184 -4.87823 0
-407.561 -4.88056 0
-405.936 -4.88305 0
-404.311 -4.88422 0
-402.687 -4.88495 0
-401.065 -4.88621 0
-399.439 -4.88479 0
-397.814 -4.88747 0
-396.19 -4.88719 0
-394.568 -4.88983 0
-392.945 -4.88798 0
-391.321 -4.88705 0
-389.698 -4.89092 0
-388.072 -4.88994 0
-386.446 -4.88882 0
-384.822 -4.88956 0
-383.198 -4.8936 0
-381.577 -4.89493 0
-379.953 -4.89515 0
-378.326 -4.89783 0
-376.704 -4.89697 0
-375.079 -4.89837 0
-373.457 -4.89873 0
-371.833 -4.89869 0
-370.207 -4.89945 0
-368.585 -4.90116 0
-366.96 -4.90044 0
-365.336 -4.89876 0
-363.713 -4.89999 0
-362.089 -4.9013 0
-360.466 -4.90171 0
-358.84 -4.90121 0
-357.218 -4.90056 0
-355.597 -4.9014 0
-353.973 -4.89774 0
-352.348 -4.89738 0
-350.724 -4.89952 0
-349.1 -4.90186 0
-347.477 -4.89792 0
-345.853 -4.89795 0
-344.228 -4.89662 0
-342.605 -4.89786 0
-340.982 -4.89795 0
-339.357 -4.89654 0
-337.733 -4.89417 0
-336.108 -4.89169 0
-334.484 -4.89282 0
-332.86 -4.89325 0
-331.237 -4.89164 0
-329.613 -4.89032 0
-327.989 -4.89075 0
-326.366 -4.89009 0
-324.743 -4.88949 0
-323.12 -4.89064 0
-321.494 -4.88893 0
-319.87 -4.88879 0
-318.246 -4.88852 0
-316.624 -4.88466 0
-315 -4.88437 0
-313.375 -4.88032 0
-311.753 -4.87951 0
-310.128 -4.88077 0
-308.502 -4.87848 0
-306.877 -4.87863 0
-305.252 -4.87492 0
-303.629 -4.87476 0
-302.006 -4.87564 0
-300.382 -4.87617 0
-298.758 -4.87501 0
-297.131 -4.87383 0
-295.506 -4.87328 0
-293.882 -4.87137 0
-292.257 -4.86883 0
-290.637 -4.86957 0
-289.014 -4.86951 0
-287.39 -4.86875 0
-285.767 -4.86766 0
-284.142 -4.86445 0
-282.517 -4.86154 0
-280.894 -4.86511 0
-279.269 -4.86412 0
-277.644 -4.86018 0
-276.018 -4.86077 0
-274.394 -4.85673 0
-272.774 -4.8556 0
-271.148 -4.85474 0
-269.528 -4.85511 0
-267.9 -4.8507 0
-266.276 -4.84844 0
-264.653 -4.84889 0
-263.025 -4.84877 0
-261.405 -4.8495 0
-259.783 -4.84956 0
-258.157 -4.84676 0
-256.533 -4.84523 0
-254.908 -4.84436 0
-253.285 -4.84416 0
-251.66 -4.8417 0
-250.038 -4.842 0
-248.412 -4.83899 0
-246.79 -4.83898 0
-245.163 -4.8393 0
-243.542 -4.84084 0
-241.916 -4.83831 0
-240.291 -4.83761 0
-238.667 -4.8374 0
-237.044 -4.83531 0
-235.421 -4.83119 0
-233.793 -4.83167 0
-232.171 -4.83222 0
-230.551 -4.82911 0
-228.926 -4.82901 0
-227.303 -4.82793 0
-225.679 -4.8291 0
-224.053 -4.82888 0
-222.43 -4.82699 0
-220.804 -4.8247 0
-219.183 -4.82713 0
-217.557 -4.82252 0
-215.932 -4.82138 0
-214.305 -4.82168 0
-212.681 -4.82189 0
-211.058 -4.8212 0
-209.433 -4.81992 0
-207.81 -4.81846 0
-206.188 -4.81618 0
-204.561 -4.81816 0
-202.941 -4.81661 0
-201.317 -4.81895 0
-199.693 -4.81966 0
-198.071 -4.82064 0
-196.445 -4.82009 0
-194.821 -4.81968 0
-193.197 -4.81978 0
-191.575 -4.81628 0
-189.951 -4.81935 0
-188.328 -4.81862 0
-186.706 -4.81707 0
-185.081 -4.81409 0
-183.457 -4.81381 0
-181.832 -4.8137 0
-180.21 -4.81458 0
-178.585 -4.81342 0
-176.962 -4.81028 0
-175.338 -4.81009 0
-173.715 -4.80796 0
-172.088 -4.80855 0
-170.465 -4.81064 0
-168.842 -4.80893 0
-167.217 -4.81041 0
-165.597 -4.80811 0
-163.973 -4.80801 0
-162.347 -4.80766 0
-160.723 -4.80709 0
-159.1 -4.80875 0
-157.477 -4.80515 0
-155.854 -4.80615 0
-154.229 -4.80376 0
-152.605 -4.80016 0
-150.983 -4.79908 0
-149.358 -4.79629 0
-147.732 -4.7996 0
-146.109 -4.80116 0
-144.488 -4.79979 0
-142.863 -4.80294 0
-141.239 -4.80444 0
-139.612 -4.80413 0
-137.992 -4.80409 0
-136.366 -4.80483 0
-134.743 -4.80139 0
-133.119 -4.8029 0
-131.494 -4.79946 0
-129.868 -4.79984 0
-128.248 -4.80002 0
-126.625 -4.80124 0
-125 -4.79921 0
-123.375 -4.79952 0
-121.753 -4.8004 0
-120.127 -4.80033 0
-118.501 -4.80185 0
-116.878 -4.80397 0
-115.255 -4.80066 0
-113.635 -4.80024 0
-112.011 -4.80174 0
-110.387 -4.80129 0
-108.762 -4.80045 0
-107.141 -4.80087 0
-105.516 -4.79741 0
-103.892 -4.80121 0
-102.268 -4.80073 0
-100.646 -4.80015 0
-99.024 -4.79902 0
-97.4012 -4.80018 0
-95.776 -4.7983 0
-94.1534 -4.79812 0
-92.5309 -4.79541 0
-90.9075 -4.79401 0
-89.2803 -4.79691 0
-87.6576 -4.79814 0
-86.0334 -4.79819 0
-84.4087 -4.79867 0
-82.7871 -4.80069 0
-81.1673 -4.80321 0
-79.5422 -4.79845 0
-77.916 -4.79797 0
-76.2908 -4.80127 0
-74.6683 -4.79924 0
-73.044 -4.79603 0
-71.4228 -4.79488 0
-69.8011 -4.79249 0
-68.1759 -4.79454 0
-66.5517 -4.79476 0
-64.9267 -4.7952 0
-63.3032 -4.79485 0
-61.6814 -4.79675 0
-60.0597 -4.79429 0
-58.4364 -4.79424 0
-56.8095 -4.79507 0
-55.1859 -4.79515 0
-53.5614 -4.79704 0
-51.938 -4.79467 0
-50.3157 -4.79503 0
-48.6924 -4.79269 0
-47.0683 -4.79255 0
-45.4471 -4.79873 0
-43.8227 -4.79589 0
-42.2009 -4.79559 0
-40.5771 -4.79259 0
-38.955 -4.79324 0
-37.3338 -4.79207 0
-35.708 -4.79459 0
-34.0858 -4.7906 0
-32.4614 -4.78995 0
-30.8381 -4.79236 0
-29.2133 -4.79388 0
-27.5879 -4.79602 0
-25.9653 -4.79468 0
-24.3431 -4.79669 0
-22.7241 -4.79542 0
-21.1015 -4.79548 0
-19.479 -4.79332 0
-17.8556 -4.79589 0
-16.232 -4.79537 0
-14.6083 -4.79576 0
-12.987 -4.79532 0
-11.3643 -4.7942 0
-9.7388 -4.79335 0
-8.11815 -4.79865 0
-6.49619 -4.79333 0
-4.86892 -4.79276 0
-3.2482 -4.79359 0
-1.62562 -4.79406 0
0 -4.79782 0
-1096.24 61.5137 0
-1096.29 54.7776 0
-1096.31 48.2577 0
-1096.29 42.0517 0
-1096.27 36.1866 0
-1096.3 30.5896 0
-1096.31 25.1985 0
-1096.24 20.0886 0
-1096.12 15.3448 0
-1095.98 10.9929 0
-1095.82 7.03025 0
-1095.64 3.44896 0
-1095.43 0.237883 0
-1095.18 -2.61964 0
-1094.9 -5.1449 0
-1094.57 -7.36198 0
-1094.19 -9.29645 0
-1093.77 -10.9733 0
-1093.3 -12.4165 0
-1092.77 -13.6493 0
-1092.19 -14.6912 0
-1091.56 -15.5623 0
-1090.88 -16.2792 0
-1090.15 -16.8566 0
-1089.38 -17.3089 0
-1088.56 -17.6479 0
-1087.71 -17.8848 0
-1086.81 -18.0299 0
-1085.88 -18.0902 0
-1084.91 -18.0747 0
-1083.91 -17.9896 0
-1082.88 -17.8415 0
-1081.82 -17.6356 0
-1080.72 -17.3773 0
-1079.6 -17.071 0
-1078.45 -16.7214 0
-1077.27 -16.3318 0
-1076.07 -15.9069 0
-1074.83 -15.45 0
-1073.58 -14.9644 0
-1072.29 -14.4534 0
-1070.99 -13.9208 0
-1069.65 -13.3697 0
-1068.3 -12.8026 0
-1066.92 -12.2223 0
-1065.52 -11.632 0
-1064.1 -11.0343 0
-1062.66 -10.4314 0
-1061.2 -9.82649 0
-1059.72 -9.2207 0
-1058.22 -8.61661 0
-1056.71 -8.01641 0
-1055.17 -7.42181 0
-1053.62 -6.83411 0
-1052.06 -6.25518 0
-1050.48 -5.68715 0
-1048.89 -5.1307 0
-1047.28 -4.58709 0
-1045.67 -4.05775 0
-1044.04 -3.54343 0
-1042.4 -3.04538 0
-1040.74 -2.56395 0
-1039.08 -2.10025 0
-1037.42 -1.65515 0
-1035.74 -1.229 0
-1034.06 -0.821681 0
-1032.36 -0.433886 0
-1030.67 -0.0665904 0
-1028.96 0.280642 0
-1027.26 0.607568 0
-1025.54 0.913832 0
-1023.83 1.1994 0
-1022.11 1.4648 0
-1020.38 1.7099 0
-1018.66 1.93456 0
-1016.93 2.13896 0
-1015.2 2.32402 0
-1013.47 2.48993 0
-1011.74 2.63625 0
-1010.01 2.76351 0
-1008.28 2.8728 0
-1006.55 2.96343 0
-1004.82 3.03577 0
-1003.09 3.09158 0
-1001.36 3.13102 0
-999.636 3.15425 0
-997.911 3.16155 0
-996.188 3.15431 0
-994.467 3.13192 0
-992.75 3.09593 0
-991.034 3.04657 0
-989.322 2.98472 0
-987.612 2.91068 0
-985.905 2.82501 0
-984.201 2.72881 0
-982.5 2.62289 0
-980.802 2.50629 0
-979.109 2.38171 0
-977.418 2.24895 0
-975.731 2.10786 0
-974.047 1.96057 0
-972.367 1.80635 0
-970.691 1.64629 0
-969.017 1.48155 0
-967.348 1.31164 0
-965.682 1.13733 0
-964.019 0.960402 0
-962.359 0.779928 0
-960.704 0.596739 0
-959.051 0.411905 0
-957.402 0.225039 0
-955.757 0.0377189 0
-954.114 -0.149962 0
-952.475 -0.337424 0
-950.837 -0.526064 0
-949.204 -0.712562 0
-947.573 -0.898194 0
-945.945 -1.08175 0
-944.319 -1.26395 0
-942.695 -1.44368 0
-941.074 -1.62053 0
-939.456 -1.7939 0
-937.84 -1.9649 0
-936.226 -2.1333 0
-934.614 -2.29774 0
-933.003 -2.45734 0
-931.395 -2.61254 0
-929.789 -2.76311 0
-928.183 -2.90925 0
-926.579 -3.05151 0
-924.978 -3.18935 0
-923.376 -3.3208 0
-921.776 -3.44661 0
-920.178 -3.56801 0
-918.58 -3.68353 0
-916.983 -3.79431 0
-915.386 -3.89847 0
-913.791 -3.99877 0
-912.196 -4.09315 0
-910.601 -4.18207 0
-909.006 -4.26527 0
-907.413 -4.34265 0
-905.82 -4.41513 0
-904.226 -4.48177 0
-902.632 -4.54299 0
-901.038 -4.59929 0
-899.445 -4.64929 0
-897.851 -4.69486 0
-896.257 -4.73526 0
-894.663 -4.77107 0
-893.068 -4.8016 0
-891.474 -4.82765 0
-889.878 -4.84949 0
-888.282 -4.86495 0
-886.686 -4.87744 0
-885.09 -4.88463 0
-883.492 -4.8875 0
-881.894 -4.88751 0
-880.295 -4.88259 0
-878.696 -4.87379 0
-877.095 -4.86268 0
-875.494 -4.84755 0
-873.892 -4.82895 0
-872.29 -4.80738 0
-870.687 -4.78255 0
-869.083 -4.75495 0
-867.477 -4.72431 0
-865.871 -4.69116 0
-864.264 -4.6555 0
-862.656 -4.61728 0
-861.048 -4.57763 0
-859.438 -4.536 0
-857.828 -4.49241 0
-856.216 -4.44713 0
-854.603 -4.39984 0
-852.99 -4.35201 0
-851.376 -4.30187 0
-849.76 -4.25165 0
-848.144 -4.20085 0
-846.528 -4.14903 0
-844.91 -4.09596 0
-843.292 -4.04298 0
-841.672 -3.9889 0
-840.052 -3.93443 0
-838.431 -3.8792 0
-836.81 -3.82492 0
-835.187 -3.7709 0
-833.563 -3.7169 0
-831.939 -3.66298 0
-830.315 -3.60814 0
-828.689 -3.555 0
-827.063 -3.50208 0
-825.437 -3.4502 0
-823.809 -3.39788 0
-822.182 -3.34928 0
-820.554 -3.30036 0
-818.925 -3.2514 0
-817.296 -3.20334 0
-815.667 -3.15572 0
-814.037 -3.10912 0
-812.406 -3.06645 0
-810.774 -3.02273 0
-809.143 -2.98163 0
-807.512 -2.9417 0
-805.879 -2.9033 0
-804.247 -2.86626 0
-802.615 -2.83037 0
-800.983 -2.79503 0
-799.35 -2.76271 0
-797.716 -2.73076 0
-796.083 -2.70108 0
-794.45 -2.6727 0
-792.815 -2.64525 0
-791.18 -2.62035 0
-789.545 -2.5968 0
-787.911 -2.57501 0
-786.276 -2.55412 0
-784.641 -2.53466 0
-783.007 -2.51769 0
-781.372 -2.50293 0
-779.738 -2.48729 0
-778.103 -2.47523 0
-776.47 -2.46361 0
-774.835 -2.45391 0
-773.201 -2.44596 0
-771.568 -2.43921 0
-769.933 -2.43359 0
-768.299 -2.42923 0
-766.665 -2.42527 0
-765.032 -2.42448 0
-763.398 -2.42426 0
-761.765 -2.42464 0
-760.131 -2.42709 0
-758.499 -2.43016 0
-756.866 -2.43531 0
-755.233 -2.44058 0
-753.6 -2.44747 0
-751.969 -2.45517 0
-750.337 -2.46502 0
-748.706 -2.47439 0
-747.074 -2.48479 0
-745.443 -2.49531 0
-743.812 -2.50595 0
-742.18 -2.52035 0
-740.55 -2.53269 0
-738.919 -2.54783 0
-737.289 -2.56342 0
-735.66 -2.57907 0
-734.031 -2.59584 0
-732.401 -2.61365 0
-730.773 -2.63166 0
-729.144 -2.64937 0
-727.516 -2.66838 0
-725.888 -2.6859 0
-724.26 -2.70569 0
-722.632 -2.72587 0
-721.004 -2.74441 0
-719.378 -2.76525 0
-717.751 -2.78438 0
-716.123 -2.80606 0
-714.497 -2.82545 0
-712.872 -2.84629 0
-711.246 -2.8675 0
-709.62 -2.88816 0
-707.995 -2.90723 0
-706.37 -2.92642 0
-704.745 -2.94774 0
-703.12 -2.96912 0
-701.496 -2.98954 0
-699.872 -3.0099 0
-698.247 -3.02984 0
-696.623 -3.0508 0
-695 -3.06945 0
-693.375 -3.08778 0
-691.752 -3.10802 0
-690.129 -3.12668 0
-688.505 -3.14326 0
-686.881 -3.16271 0
-685.259 -3.17945 0
-683.637 -3.19589 0
-682.014 -3.21288 0
-680.391 -3.22959 0
-678.768 -3.24594 0
-677.145 -3.26054 0
-675.523 -3.2766 0
-673.901 -3.29199 0
-672.279 -3.30704 0
-670.656 -3.32129 0
-669.035 -3.33483 0
-667.412 -3.34775 0
-665.791 -3.35902 0
-664.169 -3.37192 0
-662.547 -3.38386 0
-660.926 -3.39442 0
-659.304 -3.40497 0
-657.681 -3.41536 0
-656.06 -3.42663 0
-654.439 -3.43515 0
-652.817 -3.44402 0
-651.196 -3.4521 0
-649.575 -3.45944 0
-647.953 -3.46728 0
-646.332 -3.47348 0
-644.71 -3.47914 0
-643.088 -3.48568 0
-641.468 -3.48899 0
-639.846 -3.49498 0
-638.224 -3.5011 0
-636.602 -3.50454 0
-634.981 -3.50772 0
-633.36 -3.51057 0
-631.738 -3.51413 0
-630.117 -3.51572 0
-628.494 -3.51716 0
-626.871 -3.51638 0
-625.25 -3.51903 0
-623.628 -3.5197 0
-622.006 -3.51986 0
-620.384 -3.5191 0
-618.761 -3.51947 0
-617.139 -3.51712 0
-615.515 -3.5159 0
-613.893 -3.51678 0
-612.271 -3.51278 0
-610.648 -3.51108 0
-609.027 -3.50801 0
-607.404 -3.50505 0
-605.781 -3.50229 0
-604.157 -3.49998 0
-602.535 -3.49727 0
-600.91 -3.49193 0
-599.287 -3.4873 0
-597.665 -3.48311 0
-596.042 -3.47883 0
-594.419 -3.47415 0
-592.796 -3.46983 0
-591.172 -3.46579 0
-589.548 -3.46016 0
-587.924 -3.45254 0
-586.301 -3.44986 0
-584.676 -3.44376 0
-583.053 -3.43835 0
-581.428 -3.43262 0
-579.805 -3.42762 0
-578.181 -3.42465 0
-576.556 -3.41821 0
-574.931 -3.40992 0
-573.307 -3.40255 0
-571.683 -3.3982 0
-570.058 -3.39194 0
-568.432 -3.3875 0
-566.808 -3.38083 0
-565.185 -3.37596 0
-563.56 -3.36936 0
-561.936 -3.36352 0
-560.31 -3.35951 0
-558.686 -3.35257 0
-557.061 -3.34731 0
-555.435 -3.34231 0
-553.81 -3.33782 0
-552.185 -3.33158 0
-550.56 -3.32603 0
-548.935 -3.32223 0
-547.311 -3.31754 0
-545.686 -3.3126 0
-544.061 -3.30647 0
-542.435 -3.30096 0
-540.81 -3.29812 0
-539.185 -3.29297 0
-537.559 -3.28779 0
-535.934 -3.28406 0
-534.308 -3.28156 0
-532.683 -3.27593 0
-531.058 -3.2715 0
-529.433 -3.26824 0
-527.805 -3.26477 0
-526.181 -3.26072 0
-524.557 -3.25623 0
-522.931 -3.25454 0
-521.305 -3.25165 0
-519.681 -3.24762 0
-518.056 -3.24564 0
-516.431 -3.24208 0
-514.807 -3.23861 0
-513.182 -3.23692 0
-511.555 -3.23752 0
-509.93 -3.23476 0
-508.305 -3.23171 0
-506.68 -3.23003 0
-505.054 -3.22827 0
-503.428 -3.22558 0
-501.802 -3.2231 0
-500.177 -3.22171 0
-498.552 -3.22071 0
-496.927 -3.21829 0
-495.302 -3.21498 0
-493.675 -3.21609 0
-492.05 -3.21335 0
-490.425 -3.21314 0
-488.799 -3.21428 0
-487.174 -3.21378 0
-485.549 -3.21301 0
-483.925 -3.21242 0
-482.302 -3.21221 0
-480.676 -3.21217 0
-479.051 -3.21359 0
-477.426 -3.21114 0
-475.801 -3.21284 0
-474.174 -3.21412 0
-472.549 -3.21507 0
-470.924 -3.21525 0
-469.298 -3.21707 0
-467.674 -3.21754 0
-466.049 -3.21807 0
-464.423 -3.2176 0
-462.799 -3.21852 0
-461.174 -3.21961 0
-459.549 -3.21884 0
-457.923 -3.2219 0
-456.297 -3.22293 0
-454.672 -3.22569 0
-453.047 -3.22814 0
-451.423 -3.22924 0
-449.798 -3.22935 0
-448.173 -3.23079 0
-446.549 -3.23324 0
-444.925 -3.23401 0
-443.3 -3.23558 0
-441.675 -3.23811 0
-440.051 -3.23816 0
-438.425 -3.24011 0
-436.799 -3.2404 0
-435.175 -3.24243 0
-433.551 -3.24488 0
-431.925 -3.24676 0
-430.3 -3.24831 0
-428.675 -3.25079 0
-427.051 -3.25354 0
-425.428 -3.25796 0
-423.803 -3.25907 0
-422.179 -3.26012 0
-420.555 -3.26183 0
-418.932 -3.26201 0
-417.308 -3.26245 0
-415.684 -3.26283 0
-414.059 -3.26596 0
-412.434 -3.26837 0
-410.809 -3.26992 0
-409.185 -3.27201 0
-407.561 -3.2736 0
-405.938 -3.27303 0
-404.311 -3.27525 0
-402.688 -3.27723 0
-401.064 -3.27715 0
-399.441 -3.27694 0
-397.817 -3.27941 0
-396.195 -3.27917 0
-394.57 -3.28179 0
-392.946 -3.28152 0
-391.321 -3.27828 0
-389.697 -3.28161 0
-388.071 -3.28222 0
-386.447 -3.28176 0
-384.824 -3.28161 0
-383.199 -3.28505 0
-381.576 -3.28775 0
-379.952 -3.28787 0
-378.329 -3.2891 0
-376.703 -3.28899 0
-375.081 -3.28997 0
-373.458 -3.29121 0
-371.835 -3.29099 0
-370.21 -3.29088 0
-368.586 -3.29202 0
-366.96 -3.29273 0
-365.336 -3.29172 0
-363.712 -3.29121 0
-362.089 -3.29285 0
-360.465 -3.2929 0
-358.842 -3.29261 0
-357.218 -3.29354 0
-355.595 -3.29254 0
-353.971 -3.29084 0
-352.347 -3.28879 0
-350.724 -3.29149 0
-349.101 -3.29051 0
-347.477 -3.28991 0
-345.852 -3.28877 0
-344.227 -3.28798 0
-342.604 -3.28887 0
-340.981 -3.28922 0
-339.358 -3.28794 0
-337.731 -3.28741 0
-336.107 -3.28555 0
-334.484 -3.28441 0
-332.859 -3.28505 0
-331.237 -3.28304 0
-329.613 -3.28281 0
-327.988 -3.28149 0
-326.365 -3.28215 0
-324.743 -3.28218 0
-323.118 -3.2816 0
-321.493 -3.27917 0
-319.87 -3.27997 0
-318.246 -3.27918 0
-316.622 -3.27829 0
-314.999 -3.2756 0
-313.374 -3.27337 0
-311.75 -3.2717 0
-310.126 -3.2721 0
-308.503 -3.26967 0
-306.876 -3.26921 0
-305.253 -3.2689 0
-303.63 -3.26611 0
-302.007 -3.26633 0
-300.381 -3.26731 0
-298.757 -3.26569 0
-297.132 -3.26618 0
-295.506 -3.26504 0
-293.881 -3.2634 0
-292.257 -3.26396 0
-290.633 -3.26171 0
-289.01 -3.26004 0
-287.388 -3.26112 0
-285.764 -3.25983 0
-284.141 -3.25766 0
-282.516 -3.25326 0
-280.893 -3.25423 0
-279.268 -3.25572 0
-277.642 -3.25239 0
-276.018 -3.25176 0
-274.395 -3.2495 0
-272.771 -3.24935 0
-271.149 -3.24582 0
-269.525 -3.24525 0
-267.9 -3.24153 0
-266.276 -3.23927 0
-264.653 -3.24074 0
-263.027 -3.24022 0
-261.402 -3.24165 0
-259.777 -3.24064 0
-258.154 -3.23865 0
-256.531 -3.23709 0
-254.905 -3.23557 0
-253.281 -3.23549 0
-251.658 -3.2346 0
-250.034 -3.23197 0
-248.411 -3.23026 0
-246.787 -3.22863 0
-245.165 -3.23261 0
-243.54 -3.2307 0
-241.916 -3.22981 0
-240.29 -3.22914 0
-238.667 -3.22884 0
-237.042 -3.22802 0
-235.419 -3.22249 0
-233.796 -3.22408 0
-232.171 -3.22538 0
-230.547 -3.22306 0
-228.924 -3.22103 0
-227.3 -3.22259 0
-225.678 -3.22098 0
-224.053 -3.21838 0
-222.427 -3.21986 0
-220.805 -3.2188 0
-219.18 -3.21748 0
-217.557 -3.21396 0
-215.931 -3.21355 0
-214.307 -3.21426 0
-212.681 -3.21387 0
-211.056 -3.21332 0
-209.433 -3.20988 0
-207.81 -3.21204 0
-206.186 -3.20972 0
-204.563 -3.21105 0
-202.938 -3.20978 0
-201.318 -3.21103 0
-199.694 -3.21065 0
-198.07 -3.21222 0
-196.446 -3.20892 0
-194.822 -3.21076 0
-193.198 -3.21009 0
-191.575 -3.20956 0
-189.951 -3.21003 0
-188.328 -3.2112 0
-186.702 -3.20758 0
-185.08 -3.20673 0
-183.455 -3.2066 0
-181.832 -3.20789 0
-180.208 -3.20621 0
-178.584 -3.20387 0
-176.962 -3.20102 0
-175.338 -3.20246 0
-173.714 -3.20007 0
-172.091 -3.20029 0
-170.466 -3.20025 0
-168.842 -3.19961 0
-167.218 -3.20146 0
-165.594 -3.20126 0
-163.97 -3.20014 0
-162.346 -3.19904 0
-160.723 -3.19833 0
-159.098 -3.20087 0
-157.476 -3.19848 0
-155.853 -3.1963 0
-154.227 -3.19619 0
-152.604 -3.19317 0
-150.981 -3.19194 0
-149.358 -3.19145 0
-147.734 -3.19161 0
-146.109 -3.19304 0
-144.484 -3.19438 0
-142.861 -3.19486 0
-141.238 -3.19617 0
-139.613 -3.19656 0
-137.99 -3.19803 0
-136.365 -3.19516 0
-134.741 -3.19531 0
-133.117 -3.19322 0
-131.493 -3.19197 0
-129.871 -3.19126 0
-128.248 -3.19307 0
-126.623 -3.19221 0
-124.999 -3.19058 0
-123.374 -3.1917 0
-121.752 -3.1921 0
-120.128 -3.1924 0
-118.503 -3.19428 0
-116.88 -3.1934 0
-115.258 -3.19452 0
-113.635 -3.1942 0
-112.012 -3.19322 0
-110.388 -3.19225 0
-108.765 -3.19398 0
-107.141 -3.19374 0
-105.516 -3.19097 0
-103.893 -3.19304 0
-102.269 -3.19382 0
-100.647 -3.19261 0
-99.0242 -3.19066 0
-97.3998 -3.19088 0
-95.7777 -3.19036 0
-94.1531 -3.1887 0
-92.5285 -3.18838 0
-90.9063 -3.18916 0
-89.2834 -3.18933 0
-87.6594 -3.18885 0
-86.035 -3.18854 0
-84.4108 -3.19153 0
-82.7873 -3.19352 0
-81.1643 -3.19237 0
-79.54 -3.19136 0
-77.9178 -3.19077 0
-76.2933 -3.19138 0
-74.6663 -3.19115 0
-73.043 -3.18851 0
-71.4214 -3.18884 0
-69.7989 -3.18571 0
-68.1765 -3.18716 0
-66.5527 -3.18595 0
-64.9288 -3.18601 0
-63.3033 -3.18728 0
-61.682 -3.18863 0
-60.058 -3.18985 0
-58.4356 -3.18547 0
-56.8119 -3.18717 0
-55.1851 -3.18753 0
-53.5622 -3.18861 0
-51.937 -3.18746 0
-50.3138 -3.18663 0
-48.6929 -3.18659 0
-47.0697 -3.18666 0
-45.448 -3.18916 0
-43.8249 -3.18917 0
-42.2022 -3.18722 0
-40.5777 -3.18597 0
-38.9546 -3.18545 0
-37.3329 -3.18567 0
-35.709 -3.18588 0
-34.0842 -3.18533 0
-32.4605 -3.1828 0
-30.8382 -3.18475 0
-29.2148 -3.18573 0
-27.5914 -3.18786 0
-25.9684 -3.187 0
-24.3447 -3.18884 0
-22.7215 -3.18809 0
-21.0988 -3.18946 0
-19.4786 -3.18681 0
-17.8561 -3.18706 0
-16.2326 -3.18717 0
-14.6102 -3.18735 0
-12.9867 -3.18878 0
-11.3645 -3.18784 0
-9.74323 -3.1853 0
-8.11761 -3.18944 0
-6.49503 -3.18658 0
-4.87052 -3.18524 0
-3.24566 -3.18644 0
-1.62316 -3.18597 0
0 -3.18938 0
-1103.28 62.1258 0
-1102.9 55.1888 0
-1102.67 48.6925 0
-1102.39 42.4952 0
-1102.11 36.5799 0
-1101.84 30.9406 0
-1101.54 25.589 0
-1101.18 20.5348 0
-1100.74 15.8148 0
-1100.25 11.4681 0
-1099.73 7.50779 0
-1099.19 3.9308 0
-1098.63 0.727309 0
-1098.04 -2.11816 0
-1097.44 -4.62606 0
-1096.81 -6.8209 0
-1096.16 -8.72786 0
-1095.48 -10.3734 0
-1094.77 -11.7826 0
-1094.03 -12.9787 0
-1093.27 -13.9836 0
-1092.46 -14.8171 0
-1091.63 -15.4962 0
-1090.76 -16.0375 0
-1089.86 -16.4543 0
-1088.93 -16.7589 0
-1087.98 -16.963 0
-1086.99 -17.0757 0
-1085.97 -17.1055 0
-1084.93 -17.0602 0
-1083.86 -16.9463 0
-1082.76 -16.7704 0
-1081.64 -16.5371 0
-1080.5 -16.2522 0
-1079.33 -15.9197 0
-1078.13 -15.5447 0
-1076.91 -15.1302 0
-1075.67 -14.6807 0
-1074.41 -14.1996 0
-1073.12 -13.6904 0
-1071.82 -13.1568 0
-1070.49 -12.6015 0
-1069.14 -12.0283 0
-1067.77 -11.4396 0
-1066.38 -10.8388 0
-1064.97 -10.2281 0
-1063.54 -9.61084 0
-1062.1 -8.98941 0
-1060.63 -8.36574 0
-1059.15 -7.74246 0
-1057.65 -7.12175 0
-1056.14 -6.50526 0
-1054.61 -5.89535 0
-1053.07 -5.29283 0
-1051.52 -4.70032 0
-1049.95 -4.11859 0
-1048.37 -3.54991 0
-1046.77 -2.99401 0
-1045.17 -2.45335 0
-1043.55 -1.92888 0
-1041.93 -1.42078 0
-1040.29 -0.930356 0
-1038.65 -0.45816 0
-1037 -0.00485473 0
-1035.34 0.42872 0
-1033.67 0.842139 0
-1032 1.23624 0
-1030.32 1.60947 0
-1028.64 1.96143 0
-1026.95 2.29301 0
-1025.26 2.60316 0
-1023.56 2.89233 0
-1021.86 3.16079 0
-1020.16 3.40856 0
-1018.45 3.63534 0
-1016.74 3.8415 0
-1015.03 4.02809 0
-1013.32 4.19463 0
-1011.61 4.34173 0
-1009.9 4.46929 0
-1008.18 4.57786 0
-1006.47 4.66833 0
-1004.76 4.74033 0
-1003.04 4.79516 0
-1001.33 4.83335 0
-999.619 4.8554 0
-997.908 4.86115 0
-996.2 4.85132 0
-994.493 4.82737 0
-992.788 4.7891 0
-991.085 4.73769 0
-989.384 4.6726 0
-987.686 4.59628 0
-985.99 4.5081 0
-984.296 4.40883 0
-982.605 4.29993 0
-980.916 4.18088 0
-979.23 4.05309 0
-977.548 3.91683 0
-975.868 3.77284 0
-974.191 3.62205 0
-972.517 3.46454 0
-970.846 3.30175 0
-969.178 3.13336 0