<?xml version="1.0"?>
<VTKFile type="StructuredGrid"  version="0.1" byte_order="LittleEndian" compressor="vtkZLibDataCompressor">
  <StructuredGrid WholeExtent="0 700 0 30 0 0">
    <Piece Extent="0 700 0 30 0 0">
      <PointData Vectors="Velocity">
        <DataArray type="Float32" Name="Velocity" NumberOfComponents="3" format="ascii">
-1088.19 58.0764 0
-1088.4 51.5253 0
-1088.68 45.1591 0
-1088.99 39.1009 0
-1089.27 33.3843 0
-1089.48 27.9293 0
-1089.7 22.6756 0
-1089.96 17.7052 0
-1090.23 13.1056 0
-1090.48 8.89685 0
-1090.7 5.07141 0
-1090.88 1.62047 0
-1091.02 -1.4697 0
-1091.11 -4.21719 0
-1091.14 -6.6432 0
-1091.1 -8.77147 0
-1090.98 -10.6264 0
-1090.79 -12.2311 0
-1090.53 -13.609 0
-1090.19 -14.7823 0
-1089.78 -15.7694 0
-1089.3 -16.5887 0
-1088.75 -17.2571 0
-1088.14 -17.7897 0
-1087.47 -18.2003 0
-1086.74 -18.5012 0
-1085.96 -18.7024 0
-1085.13 -18.8144 0
-1084.26 -18.8458 0
-1083.35 -18.805 0
-1082.39 -18.6976 0
-1081.4 -18.5308 0
-1080.37 -18.3103 0
-1079.3 -18.0406 0
-1078.2 -17.7271 0
-1077.07 -17.374 0
-1075.9 -16.985 0
-1074.71 -16.5644 0
-1073.48 -16.1155 0
-1072.23 -15.6418 0
-1070.95 -15.1465 0
-1069.64 -14.6325 0
-1068.31 -14.1029 0
-1066.95 -13.5603 0
-1065.56 -13.0082 0
-1064.15 -12.4489 0
-1062.72 -11.8839 0
-1061.27 -11.3171 0
-1059.79 -10.7489 0
-1058.29 -10.183 0
-1056.78 -9.62101 0
-1055.24 -9.06487 0
-1053.69 -8.51548 0
-1052.12 -7.97438 0
-1050.53 -7.4439 0
-1048.93 -6.9246 0
-1047.32 -6.41838 0
-1045.69 -5.92595 0
-1044.05 -5.4494 0
-1042.4 -4.98741 0
-1040.73 -4.54191 0
-1039.06 -4.11327 0
-1037.38 -3.70371 0
-1035.68 -3.31182 0
-1033.99 -2.93823 0
-1032.28 -2.58407 0
-1030.57 -2.24855 0
-1028.85 -1.9337 0
-1027.13 -1.63869 0
-1025.4 -1.36267 0
-1023.67 -1.10676 0
-1021.94 -0.869804 0
-1020.2 -0.652876 0
-1018.46 -0.454859 0
-1016.72 -0.277168 0
-1014.98 -0.117917 0
-1013.24 0.0222719 0
-1011.5 0.14468 0
-1009.76 0.249625 0
-1008.02 0.336673 0
-1006.28 0.406775 0
-1004.54 0.46012 0
-1002.8 0.496855 0
-1001.06 0.518788 0
-999.332 0.524668 0
-997.601 0.517034 0
-995.874 0.494624 0
-994.149 0.459872 0
-992.428 0.411729 0
-990.709 0.352198 0
-988.994 0.280865 0
-987.283 0.198517 0
-985.575 0.10599 0
-983.872 0.00391253 0
-982.172 -0.107289 0
-980.475 -0.2279 0
-978.783 -0.355102 0
-977.096 -0.488811 0
-975.413 -0.630248 0
-973.732 -0.777606 0
-972.057 -0.92939 0
-970.386 -1.08693 0
-968.718 -1.24847 0
-967.055 -1.41355 0
-965.395 -1.58208 0
-963.739 -1.75253 0
-962.087 -1.92527 0
-960.44 -2.09966 0
-958.796 -2.27517 0
-957.155 -2.4506 0
-955.518 -2.62679 0
-953.883 -2.80265 0
-952.254 -2.9785 0
-950.627 -3.15099 0
-949.003 -3.32286 0
-947.382 -3.49351 0
-945.764 -3.6613 0
-944.148 -3.82784 0
-942.536 -3.99056 0
-940.925 -4.15014 0
-939.318 -4.30755 0
-937.714 -4.45886 0
-936.109 -4.60716 0
-934.508 -4.75217 0
-932.907 -4.89193 0
-931.309 -5.02817 0
-929.713 -5.15921 0
-928.118 -5.28504 0
-926.526 -5.40606 0
-924.933 -5.52235 0
-923.342 -5.63423 0
-921.752 -5.73915 0
-920.163 -5.84001 0
-918.574 -5.93505 0
-916.986 -6.02573 0
-915.398 -6.11037 0
-913.811 -6.18971 0
-912.225 -6.26256 0
-910.638 -6.33135 0
-909.052 -6.3943 0
-907.466 -6.45259 0
-905.88 -6.50555 0
-904.293 -6.55308 0
-902.707 -6.59524 0
-901.12 -6.63279 0
-899.533 -6.66461 0
-897.946 -6.69212 0
-896.357 -6.71579 0
-894.769 -6.73545 0
-893.18 -6.74827 0
-891.59 -6.75651 0
-890 -6.76192 0
-888.408 -6.76389 0
-886.816 -6.76148 0
-885.225 -6.75378 0
-883.63 -6.74359 0
-882.035 -6.73102 0
-880.44 -6.71363 0
-878.843 -6.69426 0
-877.246 -6.67029 0
-875.648 -6.64338 0
-874.049 -6.61448 0
-872.448 -6.58173 0
-870.846 -6.54804 0
-869.243 -6.51033 0
-867.64 -6.47255 0
-866.035 -6.43232 0
-864.43 -6.38993 0
-862.823 -6.34445 0
-861.214 -6.29896 0
-859.606 -6.2526 0
-857.995 -6.2033 0
-856.384 -6.15425 0
-854.772 -6.10258 0
-853.159 -6.0513 0
-851.546 -5.99781 0
-849.931 -5.946 0
-848.315 -5.89325 0
-846.698 -5.84049 0
-845.081 -5.78681 0
-843.462 -5.73247 0
-841.843 -5.68023 0
-840.222 -5.6253 0
-838.6 -5.57159 0
-836.978 -5.51824 0
-835.356 -5.46478 0
-833.733 -5.41241 0
-832.109 -5.36269 0
-830.484 -5.31122 0
-828.858 -5.26163 0
-827.232 -5.21232 0
-825.606 -5.1639 0
-823.979 -5.11662 0
-822.352 -5.07082 0
-820.723 -5.02439 0
-819.094 -4.98089 0
-817.464 -4.93878 0
-815.834 -4.89608 0
-814.205 -4.85715 0
-812.574 -4.8186 0
-810.943 -4.78141 0
-809.313 -4.74518 0
-807.683 -4.71168 0
-806.051 -4.6775 0
-804.419 -4.64633 0
-802.787 -4.6158 0
-801.155 -4.58742 0
-799.522 -4.56007 0
-797.89 -4.53554 0
-796.258 -4.5109 0
-794.626 -4.48737 0
-792.992 -4.46612 0
-791.359 -4.44708 0
-789.727 -4.42904 0
-788.095 -4.41271 0
-786.463 -4.39831 0
-784.831 -4.38524 0
-783.196 -4.37376 0
-781.563 -4.36303 0
-779.931 -4.35305 0
-778.299 -4.34629 0
-776.668 -4.34 0
-775.036 -4.33625 0
-773.404 -4.33206 0
-771.774 -4.32861 0
-770.141 -4.32688 0
-768.51 -4.32624 0
-766.879 -4.32687 0
-765.249 -4.3302 0
-763.618 -4.33372 0
-761.987 -4.33778 0
-760.358 -4.34264 0
-758.728 -4.34962 0
-757.099 -4.35689 0
-755.47 -4.3641 0
-753.842 -4.37358 0
-752.213 -4.38381 0
-750.585 -4.3944 0
-748.957 -4.40502 0
-747.33 -4.41679 0
-745.702 -4.42893 0
-744.075 -4.44115 0
-742.449 -4.45717 0
-740.822 -4.47086 0
-739.197 -4.48537 0
-737.571 -4.49946 0
-735.945 -4.51405 0
-734.32 -4.53126 0
-732.694 -4.54815 0
-731.07 -4.56527 0
-729.446 -4.58075 0
-727.822 -4.59713 0
-726.198 -4.6147 0
-724.573 -4.63109 0
-722.951 -4.64882 0
-721.327 -4.66679 0
-719.705 -4.68281 0
-718.082 -4.70176 0
-716.458 -4.71782 0
-714.836 -4.73521 0
-713.216 -4.75146 0
-711.594 -4.77 0
-709.972 -4.7855 0
-708.352 -4.80189 0
-706.731 -4.81764 0
-705.11 -4.83405 0
-703.489 -4.84933 0
-701.869 -4.86554 0
-700.249 -4.88053 0
-698.629 -4.89613 0
-697.008 -4.9115 0
-695.388 -4.92579 0
-693.768 -4.93909 0
-692.148 -4.95376 0
-690.528 -4.96715 0
-688.908 -4.98046 0
-687.289 -4.99434 0
-685.67 -5.00727 0
-684.051 -5.01926 0
-682.432 -5.02907 0
-680.814 -5.04075 0
-679.196 -5.05124 0
-677.576 -5.06181 0
-675.957 -5.07138 0
-674.339 -5.07981 0
-672.721 -5.08858 0
-671.102 -5.09792 0
-669.484 -5.10455 0
-667.865 -5.11297 0
-666.247 -5.11839 0
-664.628 -5.12571 0
-663.011 -5.1307 0
-661.392 -5.1367 0
-659.773 -5.14133 0
-658.154 -5.14459 0
-656.536 -5.15018 0
-654.919 -5.15463 0
-653.3 -5.15632 0
-651.682 -5.15976 0
-650.064 -5.16223 0
-648.445 -5.16336 0
-646.826 -5.16594 0
-645.207 -5.16725 0
-643.589 -5.16651 0
-641.971 -5.16859 0
-640.353 -5.16752 0
-638.734 -5.1649 0
-637.115 -5.16488 0
-635.495 -5.16198 0
-633.875 -5.16178 0
-632.256 -5.15982 0
-630.638 -5.15834 0
-629.019 -5.15494 0
-627.399 -5.15273 0
-625.78 -5.14933 0
-624.161 -5.14637 0
-622.542 -5.1419 0
-620.923 -5.13828 0
-619.302 -5.13533 0
-617.68 -5.13021 0
-616.06 -5.12629 0
-614.44 -5.12172 0
-612.82 -5.11471 0
-611.2 -5.11041 0
-609.58 -5.1041 0
-607.959 -5.09922 0
-606.34 -5.09247 0
-604.718 -5.08733 0
-603.098 -5.07942 0
-601.477 -5.07447 0
-599.857 -5.06863 0
-598.236 -5.06225 0
-596.615 -5.05554 0
-594.995 -5.04782 0
-593.373 -5.04142 0
-591.752 -5.03591 0
-590.131 -5.03015 0
-588.51 -5.02157 0
-586.888 -5.01617 0
-585.266 -5.00922 0
-583.643 -5.00015 0
-582.022 -4.99411 0
-580.401 -4.9887 0
-578.78 -4.98198 0
-577.157 -4.97554 0
-575.536 -4.96819 0
-573.913 -4.96178 0
-572.29 -4.95548 0
-570.67 -4.94946 0
-569.047 -4.94194 0
-567.425 -4.93738 0
-565.804 -4.93063 0
-564.182 -4.92585 0
-562.558 -4.91969 0
-560.936 -4.91356 0
-559.313 -4.90739 0
-557.692 -4.90311 0
-556.068 -4.89788 0
-554.444 -4.89258 0
-552.823 -4.88765 0
-551.199 -4.88168 0
-549.577 -4.87618 0
-547.954 -4.87056 0
-546.332 -4.86811 0
-544.709 -4.8634 0
-543.087 -4.8597 0
-541.465 -4.85284 0
-539.843 -4.8513 0
-538.22 -4.84657 0
-536.599 -4.84273 0
-534.975 -4.83898 0
-533.354 -4.83515 0
-531.729 -4.82994 0
-530.107 -4.82858 0
-528.485 -4.82538 0
-526.862 -4.82154 0
-525.238 -4.8187 0
-523.616 -4.81664 0
-521.993 -4.81497 0
-520.37 -4.81374 0
-518.747 -4.81029 0
-517.127 -4.80823 0
-515.503 -4.80513 0
-513.881 -4.80368 0
-512.259 -4.80324 0
-510.637 -4.80166 0
-509.015 -4.79904 0
-507.392 -4.79807 0
-505.769 -4.79638 0
-504.145 -4.79667 0
-502.523 -4.79563 0
-500.9 -4.79289 0
-499.279 -4.79168 0
-497.655 -4.79186 0
-496.033 -4.79129 0
-494.411 -4.79234 0
-492.788 -4.79043 0
-491.166 -4.79132 0
-489.545 -4.78909 0
-487.922 -4.79124 0
-486.299 -4.79087 0
-484.675 -4.7898 0
-483.053 -4.79029 0
-481.431 -4.79323 0
-479.808 -4.79267 0
-478.186 -4.79467 0
-476.564 -4.79271 0
-474.944 -4.79373 0
-473.322 -4.79545 0
-471.699 -4.7958 0
-470.076 -4.79812 0
-468.454 -4.79877 0
-466.832 -4.79903 0
-465.212 -4.79891 0
-463.59 -4.79862 0
-461.968 -4.80115 0
-460.345 -4.80197 0
-458.724 -4.80464 0
-457.103 -4.80646 0
-455.481 -4.80619 0
-453.858 -4.80749 0
-452.235 -4.81023 0
-450.614 -4.81007 0
-448.993 -4.81136 0
-447.373 -4.81295 0
-445.749 -4.81336 0
-444.129 -4.81558 0
-442.508 -4.81647 0
-440.887 -4.81753 0
-439.265 -4.81979 0
-437.642 -4.8218 0
-436.021 -4.82266 0
-434.398 -4.82469 0
-432.775 -4.82634 0
-431.157 -4.82803 0
-429.535 -4.82982 0
-427.913 -4.83064 0
-426.292 -4.83274 0
-424.671 -4.83375 0
-423.049 -4.83319 0
-421.431 -4.83418 0
-419.811 -4.83524 0
-418.19 -4.83808 0
-416.567 -4.83852 0
-414.944 -4.84084 0
-413.324 -4.83958 0
-411.704 -4.8423 0
-410.084 -4.84234 0
-408.463 -4.84195 0
-406.839 -4.8444 0
-405.218 -4.84412 0
-403.596 -4.84514 0
-401.974 -4.84719 0
-400.354 -4.845 0
-398.732 -4.84616 0
-397.112 -4.84757 0
-395.491 -4.84936 0
-393.871 -4.84879 0
-392.25 -4.85056 0
-390.629 -4.84973 0
-389.009 -4.84909 0
-387.387 -4.84924 0
-385.765 -4.85134 0
-384.143 -4.85349 0
-382.525 -4.85209 0
-380.901 -4.85028 0
-379.279 -4.85364 0
-377.658 -4.8535 0
-376.037 -4.85169 0
-374.415 -4.85419 0
-372.794 -4.85559 0
-371.174 -4.85437 0
-369.554 -4.85345 0
-367.932 -4.85351 0
-366.313 -4.85066 0
-364.69 -4.84847 0
-363.07 -4.85009 0
-361.449 -4.84889 0
-359.826 -4.84983 0
-358.205 -4.84879 0
-356.584 -4.85019 0
-354.964 -4.84992 0
-353.345 -4.84978 0
-351.724 -4.84936 0
-350.102 -4.84789 0
-348.481 -4.84632 0
-346.862 -4.84767 0
-345.239 -4.84678 0
-343.619 -4.84728 0
-341.995 -4.84851 0
-340.375 -4.84733 0
-338.754 -4.84436 0
-337.134 -4.84358 0
-335.513 -4.84384 0
-333.891 -4.84255 0
-332.272 -4.84401 0
-330.651 -4.84187 0
-329.03 -4.83957 0
-327.408 -4.83874 0
-325.788 -4.83897 0
-324.166 -4.83523 0
-322.548 -4.83292 0
-320.927 -4.83298 0
-319.302 -4.83239 0
-317.681 -4.83331 0
-316.059 -4.83417 0
-314.438 -4.8321 0
-312.82 -4.83178 0
-311.198 -4.83299 0
-309.577 -4.8284 0
-307.955 -4.83062 0
-306.335 -4.82803 0
-304.714 -4.8272 0
-303.091 -4.82559 0
-301.468 -4.82373 0
-299.849 -4.82646 0
-298.228 -4.82468 0
-296.606 -4.82169 0
-294.985 -4.82391 0
-293.364 -4.82166 0
-291.743 -4.82197 0
-290.125 -4.81839 0
-288.501 -4.82009 0
-286.88 -4.81797 0
-285.257 -4.81529 0
-283.635 -4.81342 0
-282.012 -4.81632 0
-280.394 -4.81711 0
-278.771 -4.8153 0
-277.152 -4.81392 0
-275.533 -4.81556 0
-273.91 -4.81377 0
-272.289 -4.81225 0
-270.668 -4.81116 0
-269.049 -4.81219 0
-267.429 -4.81034 0
-265.806 -4.81003 0
-264.185 -4.80869 0
-262.563 -4.80677 0
-260.941 -4.80779 0
-259.321 -4.80673 0
-257.7 -4.80808 0
-256.079 -4.80592 0
-254.46 -4.80461 0
-252.839 -4.8045 0
-251.214 -4.8039 0
-249.593 -4.80521 0
-247.973 -4.80338 0
-246.35 -4.80297 0
-244.729 -4.80546 0
-243.109 -4.80464 0
-241.489 -4.80427 0
-239.866 -4.8037 0
-238.244 -4.8049 0
-236.625 -4.80325 0
-235.004 -4.80153 0
-233.384 -4.80312 0
-231.762 -4.80225 0
-230.139 -4.8016 0
-228.518 -4.8007 0
-226.897 -4.79894 0
-225.276 -4.79733 0
-223.654 -4.80203 0
-222.034 -4.80139 0
-220.415 -4.80098 0
-218.795 -4.80244 0
-217.173 -4.80048 0
-215.548 -4.80199 0
-213.927 -4.80398 0
-212.307 -4.80159 0
-210.686 -4.79913 0
-209.064 -4.80311 0
-207.442 -4.80072 0
-205.823 -4.79978 0
-204.204 -4.80025 0
-202.581 -4.79898 0
-200.959 -4.79912 0
-199.337 -4.79917 0
-197.718 -4.80033 0
-196.097 -4.80021 0
-194.474 -4.80023 0
-192.855 -4.80124 0
-191.235 -4.80047 0
-189.615 -4.79858 0
-187.992 -4.801 0
-186.371 -4.8044 0
-184.751 -4.80394 0
-183.13 -4.80452 0
-181.508 -4.80404 0
-179.886 -4.80259 0
-178.267 -4.80309 0
-176.647 -4.79996 0
-175.028 -4.801 0
-173.407 -4.80012 0
-171.783 -4.80048 0
-170.164 -4.79919 0
-168.542 -4.79935 0
-166.92 -4.79659 0
-165.299 -4.79848 0
-163.68 -4.80008 0
-162.059 -4.80094 0
-160.439 -4.80194 0
-158.818 -4.80233 0
-157.198 -4.80044 0
-155.577 -4.80125 0
-153.958 -4.80294 0
-152.336 -4.7998 0
-150.714 -4.80005 0
-149.093 -4.80232 0
-147.472 -4.80184 0
-145.851 -4.80334 0
-144.23 -4.80351 0
-142.609 -4.80685 0
-140.989 -4.80369 0
-139.367 -4.80243 0
-137.745 -4.80225 0
-136.127 -4.80288 0
-134.506 -4.80278 0
-132.887 -4.80139 0
-131.266 -4.80267 0
-129.645 -4.80198 0
-128.025 -4.80202 0
-126.404 -4.804 0
-124.78 -4.80567 0
-123.162 -4.8068 0
-121.54 -4.80479 0
-119.918 -4.80353 0
-118.297 -4.8035 0
-116.676 -4.8049 0
-115.054 -4.80541 0
-113.436 -4.80417 0
-111.814 -4.80546 0
-110.194 -4.80486 0
-108.572 -4.8055 0
-106.954 -4.80791 0
-105.334 -4.80572 0
-103.713 -4.80601 0
-102.093 -4.80538 0
-100.471 -4.80691 0
-98.8508 -4.8058 0
-97.2319 -4.80805 0
-95.6121 -4.80901 0
-93.9895 -4.80932 0
-92.3692 -4.80704 0
-90.7498 -4.80964 0
-89.1298 -4.80878 0
-87.509 -4.8075 0
-85.8881 -4.80734 0
-84.2676 -4.80756 0
-82.6474 -4.80741 0
-81.0256 -4.80824 0
-79.4064 -4.81014 0
-77.7869 -4.80878 0
-76.165 -4.8092 0
-74.5449 -4.8111 0
-72.9236 -4.81162 0
-71.3032 -4.81011 0
-69.6825 -4.80993 0
-68.0602 -4.80952 0
-66.4416 -4.81047 0
-64.8216 -4.80911 0
-63.2004 -4.80703 0
-61.5815 -4.80977 0
-59.9598 -4.80907 0
-58.3396 -4.80719 0
-56.7188 -4.8078 0
-55.0979 -4.80823 0
-53.4788 -4.80731 0
-51.8587 -4.80821 0
-50.2368 -4.80932 0
-48.6142 -4.8085 0
-46.9946 -4.80664 0
-45.3744 -4.808 0
-43.7536 -4.80686 0
-42.1316 -4.80772 0
-40.5104 -4.80846 0
-38.8906 -4.80687 0
-37.2703 -4.80968 0
-35.6501 -4.80583 0
-34.0314 -4.80752 0
-32.4117 -4.80653 0
-30.7905 -4.80832 0
-29.1662 -4.80816 0
-27.5477 -4.80719 0
-25.9269 -4.80588 0
-24.3033 -4.80734 0
-22.6853 -4.80797 0
-21.0641 -4.80945 0
-19.4431 -4.81049 0
-17.8229 -4.80849 0
-16.2033 -4.80854 0
-14.5834 -4.80538 0
-12.964 -4.80566 0
-11.3419 -4.80484 0
-9.72087 -4.80633 0
-8.09994 -4.80567 0
-6.48103 -4.80546 0
-4.86198 -4.80795 0
-3.24105 -4.80869 0
-1.61949 -4.8078 0
0 -4.80941 0
-1094.75 58.3288 0
-1094.8 51.7192 0
-1094.83 45.3274 0
-1094.82 39.2525 0
-1094.81 33.5221 0
-1094.85 28.059 0
-1094.86 22.7997 0
-1094.8 17.8237 0
-1094.68 13.2184 0
-1094.55 9.00709 0
-1094.39 5.18606 0
-1094.2 1.74717 0
-1093.99 -1.32199 0
-1093.74 -4.03908 0
-1093.45 -6.42575 0
-1093.12 -8.50725 0
-1092.74 -10.3095 0
-1092.31 -11.8584 0
-1091.83 -13.1786 0
-1091.29 -14.2935 0
-1090.7 -15.2232 0
-1090.05 -15.9868 0
-1089.36 -16.6015 0
-1088.62 -17.083 0
-1087.83 -17.4447 0
-1087 -17.699 0
-1086.12 -17.8572 0
-1085.21 -17.9274 0
-1084.26 -17.9198 0
-1083.28 -17.8412 0
-1082.26 -17.6986 0
-1081.21 -17.4979 0
-1080.13 -17.2444 0
-1079.01 -16.9434 0
-1077.87 -16.5995 0
-1076.7 -16.2165 0
-1075.51 -15.7986 0
-1074.28 -15.35 0
-1073.03 -14.874 0
-1071.75 -14.3736 0
-1070.45 -13.8523 0
-1069.13 -13.3134 0
-1067.78 -12.7594 0
-1066.41 -12.193 0
-1065.01 -11.618 0
-1063.6 -11.0362 0
-1062.16 -10.4502 0
-1060.71 -9.86266 0
-1059.23 -9.27495 0
-1057.74 -8.69037 0
-1056.23 -8.11036 0
-1054.7 -7.53691 0
-1053.15 -6.97108 0
-1051.59 -6.41516 0
-1050.02 -5.86964 0
-1048.43 -5.33644 0
-1046.83 -4.81748 0
-1045.21 -4.31318 0
-1043.59 -3.82461 0
-1041.95 -3.35226 0
-1040.3 -2.89731 0
-1038.65 -2.45974 0
-1036.98 -2.04149 0
-1035.31 -1.6421 0
-1033.63 -1.26166 0
-1031.94 -0.901376 0
-1030.25 -0.560507 0
-1028.55 -0.240412 0
-1026.85 0.0594594 0
-1025.14 0.339055 0
-1023.43 0.59854 0
-1021.72 0.837761 0
-1020 1.057 0
-1018.28 1.25641 0
-1016.56 1.43617 0
-1014.84 1.59554 0
-1013.11 1.73659 0
-1011.39 1.85902 0
-1009.67 1.96323 0
-1007.94 2.04949 0
-1006.22 2.11855 0
-1004.5 2.17066 0
-1002.77 2.20602 0
-1001.05 2.22595 0
-999.335 2.23016 0
-997.619 2.21948 0
-995.905 2.19528 0
-994.193 2.15726 0
-992.483 2.10663 0
-990.776 2.04397 0
-989.072 1.96894 0
-987.371 1.88338 0
-985.673 1.78739 0
-983.978 1.68197 0
-982.287 1.567 0
-980.599 1.44347 0
-978.914 1.31235 0
-977.233 1.17371 0
-975.555 1.02908 0
-973.881 0.878418 0
-972.211 0.722591 0
-970.544 0.561526 0
-968.88 0.396211 0
-967.22 0.227422 0
-965.563 0.0556766 0
-963.909 -0.119048 0
-962.259 -0.295135 0
-960.613 -0.473285 0
-958.97 -0.651604 0
-957.329 -0.830113 0
-955.692 -1.00891 0
-954.057 -1.18889 0
-952.426 -1.36754 0
-950.798 -1.54355 0
-949.172 -1.71785 0
-947.55 -1.89056 0
-945.929 -2.06157 0
-944.311 -2.23062 0
-942.695 -2.39535 0
-941.081 -2.55785 0
-939.47 -2.71627 0
-937.86 -2.87038 0
-936.254 -3.02058 0
-934.648 -3.1668 0
-933.044 -3.30818 0
-931.441 -3.44599 0
-929.84 -3.57895 0
-928.24 -3.70646 0
-926.642 -3.82817 0
-925.045 -3.94542 0
-923.448 -4.05826 0
-921.853 -4.16483 0
-920.258 -4.2667 0
-918.665 -4.36197 0
-917.071 -4.45239 0
-915.478 -4.53797 0
-913.886 -4.61731 0
-912.294 -4.69099 0
-910.703 -4.75948 0
-909.111 -4.82341 0
-907.52 -4.88132 0
-905.929 -4.93404 0
-904.338 -4.98067 0
-902.746 -5.02371 0
-901.154 -5.06067 0
-899.562 -5.09251 0
-897.97 -5.12009 0
-896.378 -5.14236 0
-894.785 -5.16153 0
-893.191 -5.17419 0
-891.597 -5.18241 0
-890.003 -5.18706 0
-888.408 -5.18751 0
-886.812 -5.1839 0
-885.215 -5.17629 0
-883.619 -5.16539 0
-882.02 -5.15092 0
-880.421 -5.13368 0
-878.822 -5.1127 0
-877.221 -5.08854 0
-875.62 -5.06047 0
-874.018 -5.03006 0
-872.415 -4.99625 0
-870.811 -4.96137 0
-869.206 -4.92389 0
-867.601 -4.88479 0
-865.994 -4.84351 0
-864.387 -4.80016 0
-862.779 -4.75402 0
-861.169 -4.7073 0
-859.559 -4.66001 0
-857.947 -4.6103 0
-856.334 -4.55987 0
-854.722 -4.50731 0
-853.109 -4.45514 0
-851.494 -4.40164 0
-849.879 -4.34822 0
-848.263 -4.29433 0
-846.646 -4.24051 0
-845.027 -4.18617 0
-843.408 -4.13142 0
-841.789 -4.07746 0
-840.169 -4.02213 0
-838.548 -3.96721 0
-836.927 -3.91357 0
-835.304 -3.86008 0
-833.682 -3.80722 0
-832.058 -3.75576 0
-830.434 -3.70435 0
-828.81 -3.65373 0
-827.185 -3.60394 0
-825.559 -3.55601 0
-823.932 -3.50746 0
-822.306 -3.46032 0
-820.679 -3.4147 0
-819.052 -3.3709 0
-817.424 -3.32675 0
-815.795 -3.2856 0
-814.166 -3.24535 0
-812.537 -3.20652 0
-810.908 -3.16888 0
-809.278 -3.13264 0
-807.648 -3.09858 0
-806.019 -3.06364 0
-804.389 -3.03288 0
-802.759 -3.00266 0
-801.128 -2.97277 0
-799.497 -2.94624 0
-797.866 -2.92117 0
-796.235 -2.89698 0
-794.604 -2.87405 0
-792.972 -2.85241 0
-791.341 -2.83289 0
-789.71 -2.81507 0
-788.08 -2.79899 0
-786.448 -2.78418 0
-784.817 -2.77131 0
-783.186 -2.75899 0
-781.554 -2.74891 0
-779.923 -2.74028 0
-778.293 -2.73229 0
-776.662 -2.72608 0
-775.031 -2.72185 0
-773.401 -2.71847 0
-771.77 -2.71574 0
-770.14 -2.71441 0
-768.51 -2.71439 0
-766.881 -2.71482 0
-765.251 -2.71746 0
-763.622 -2.72126 0
-761.992 -2.72603 0
-760.364 -2.73194 0
-758.735 -2.73787 0
-757.106 -2.74653 0
-755.478 -2.75392 0
-753.85 -2.76272 0
-752.224 -2.77242 0
-750.596 -2.78424 0
-748.968 -2.79545 0
-747.341 -2.80737 0
-745.715 -2.82 0
-744.089 -2.83356 0
-742.463 -2.84855 0
-740.838 -2.86287 0
-739.212 -2.87678 0
-737.586 -2.89257 0
-735.961 -2.90777 0
-734.336 -2.92366 0
-732.712 -2.94083 0
-731.087 -2.95803 0
-729.464 -2.97503 0
-727.839 -2.99167 0
-726.215 -3.00814 0
-724.591 -3.02537 0
-722.968 -3.04303 0
-721.344 -3.06023 0
-719.722 -3.07886 0
-718.1 -3.09518 0
-716.477 -3.11223 0
-714.854 -3.13114 0
-713.232 -3.14804 0
-711.611 -3.16524 0
-709.989 -3.18142 0
-708.368 -3.19787 0
-706.748 -3.21545 0
-705.126 -3.23029 0
-703.504 -3.24699 0
-701.883 -3.26281 0
-700.263 -3.2775 0
-698.642 -3.29352 0
-697.023 -3.30904 0
-695.402 -3.32363 0
-693.783 -3.33725 0
-692.163 -3.35168 0
-690.542 -3.36552 0
-688.922 -3.37848 0
-687.303 -3.39269 0
-685.682 -3.40514 0
-684.063 -3.41672 0
-682.443 -3.42869 0
-680.825 -3.43859 0
-679.206 -3.44919 0
-677.586 -3.45894 0
-675.967 -3.47004 0
-674.348 -3.47882 0
-672.73 -3.48695 0
-671.11 -3.49574 0
-669.491 -3.50439 0
-667.873 -3.51222 0
-666.254 -3.51783 0
-664.635 -3.52441 0
-663.015 -3.53027 0
-661.396 -3.53453 0
-659.777 -3.54057 0
-658.158 -3.54521 0
-656.541 -3.54931 0
-654.922 -3.55242 0
-653.303 -3.55609 0
-651.685 -3.55885 0
-650.066 -3.5611 0
-648.447 -3.56256 0
-646.827 -3.56463 0
-645.209 -3.56564 0
-643.589 -3.5653 0
-641.971 -3.56681 0
-640.351 -3.56555 0
-638.732 -3.56403 0
-637.113 -3.56229 0
-635.493 -3.56055 0
-633.873 -3.55937 0
-632.253 -3.55942 0
-630.634 -3.55614 0
-629.015 -3.55365 0
-627.396 -3.55136 0
-625.776 -3.54814 0
-624.156 -3.54461 0
-622.538 -3.53922 0
-620.917 -3.53592 0
-619.297 -3.53227 0
-617.676 -3.52752 0
-616.056 -3.52327 0
-614.436 -3.51888 0
-612.814 -3.51224 0
-611.194 -3.5083 0
-609.573 -3.50165 0
-607.955 -3.49582 0
-606.333 -3.48918 0
-604.713 -3.48246 0
-603.091 -3.47694 0
-601.471 -3.47025 0
-599.85 -3.46424 0
-598.229 -3.45858 0
-596.607 -3.45116 0
-594.987 -3.44502 0
-593.366 -3.43786 0
-591.745 -3.43094 0
-590.124 -3.42527 0
-588.503 -3.41723 0
-586.882 -3.41139 0
-585.258 -3.40436 0
-583.636 -3.39692 0
-582.015 -3.39013 0
-580.393 -3.38523 0
-578.771 -3.37813 0
-577.15 -3.37152 0
-575.528 -3.36441 0
-573.907 -3.35737 0
-572.284 -3.35085 0
-570.663 -3.34462 0
-569.041 -3.3378 0
-567.419 -3.33217 0
-565.798 -3.32586 0
-564.176 -3.32082 0
-562.553 -3.31416 0
-560.93 -3.30853 0
-559.308 -3.30316 0
-557.686 -3.29762 0
-556.063 -3.29279 0
-554.44 -3.28741 0
-552.819 -3.28171 0
-551.195 -3.27627 0
-549.572 -3.27122 0
-547.95 -3.26569 0
-546.328 -3.26357 0
-544.705 -3.25845 0
-543.082 -3.25495 0
-541.46 -3.24928 0
-539.838 -3.24562 0
-538.216 -3.2415 0
-536.594 -3.23795 0
-534.971 -3.23432 0
-533.348 -3.22917 0
-531.726 -3.22538 0
-530.104 -3.22296 0
-528.48 -3.2184 0
-526.858 -3.21616 0
-525.236 -3.21287 0
-523.614 -3.21122 0
-521.992 -3.20982 0
-520.368 -3.20792 0
-518.746 -3.20647 0
-517.123 -3.20244 0
-515.5 -3.20122 0
-513.878 -3.1995 0
-512.257 -3.19874 0
-510.635 -3.19634 0
-509.012 -3.19411 0
-507.39 -3.19337 0
-505.767 -3.19215 0
-504.144 -3.18994 0
-502.521 -3.18983 0
-500.898 -3.18952 0
-499.276 -3.18764 0
-497.655 -3.18669 0
-496.033 -3.18712 0
-494.411 -3.18666 0
-492.787 -3.18602 0
-491.166 -3.186 0
-489.545 -3.18574 0
-487.922 -3.18481 0
-486.3 -3.18488 0
-484.677 -3.18512 0
-483.054 -3.18689 0
-481.431 -3.1873 0
-479.809 -3.18917 0
-478.187 -3.18884 0
-476.565 -3.18919 0
-474.943 -3.18942 0
-473.321 -3.1903 0
-471.7 -3.19143 0
-470.077 -3.19262 0
-468.454 -3.19474 0
-466.832 -3.19519 0
-465.211 -3.19576 0
-463.589 -3.19563 0
-461.968 -3.19836 0
-460.347 -3.19762 0
-458.726 -3.20053 0
-457.103 -3.20094 0
-455.481 -3.20226 0
-453.859 -3.20255 0
-452.238 -3.20609 0
-450.616 -3.20644 0
-448.995 -3.20847 0
-447.373 -3.20888 0
-445.751 -3.20945 0
-444.13 -3.21076 0
-442.508 -3.21207 0
-440.886 -3.2126 0
-439.266 -3.21455 0
-437.644 -3.21723 0
-436.022 -3.21792 0
-434.401 -3.21958 0
-432.778 -3.22233 0
-431.157 -3.22408 0
-429.536 -3.22562 0
-427.916 -3.22644 0
-426.294 -3.22825 0
-424.671 -3.22949 0
-423.049 -3.23128 0
-421.43 -3.23223 0
-419.81 -3.23233 0
-418.189 -3.23336 0
-416.567 -3.23387 0
-414.945 -3.23665 0
-413.325 -3.23759 0
-411.704 -3.23716 0
-410.081 -3.23922 0
-408.462 -3.2381 0
-406.84 -3.24074 0
-405.219 -3.23989 0
-403.6 -3.24218 0
-401.977 -3.24243 0
-400.356 -3.24247 0
-398.733 -3.24425 0
-397.114 -3.24388 0
-395.493 -3.24531 0
-393.87 -3.24559 0
-392.249 -3.24647 0
-390.627 -3.24565 0
-389.007 -3.24462 0
-387.386 -3.24534 0
-385.766 -3.24727 0
-384.144 -3.2502 0
-382.522 -3.2486 0
-380.902 -3.24769 0
-379.28 -3.24925 0
-377.658 -3.24995 0
-376.038 -3.24902 0
-374.418 -3.25078 0
-372.796 -3.25198 0
-371.175 -3.25008 0
-369.552 -3.24948 0
-367.931 -3.24922 0
-366.31 -3.24751 0
-364.691 -3.24568 0
-363.069 -3.24579 0
-361.448 -3.24717 0
-359.826 -3.24672 0
-358.205 -3.2459 0
-356.586 -3.24705 0
-354.966 -3.24762 0
-353.344 -3.24587 0
-351.722 -3.2458 0
-350.1 -3.24453 0
-348.479 -3.24379 0
-346.861 -3.24356 0
-345.24 -3.24253 0
-343.619 -3.24344 0
-341.997 -3.24364 0
-340.375 -3.24389 0
-338.754 -3.24278 0
-337.134 -3.24041 0
-335.513 -3.23974 0
-333.891 -3.23926 0
-332.269 -3.23958 0
-330.648 -3.23894 0
-329.028 -3.23542 0
-327.406 -3.23487 0
-325.785 -3.23389 0
-324.164 -3.23204 0
-322.545 -3.23212 0
-320.924 -3.22872 0
-319.301 -3.22813 0
-317.68 -3.23095 0
-316.06 -3.23041 0
-314.439 -3.22985 0
-312.818 -3.22955 0
-311.196 -3.22816 0
-309.575 -3.22564 0
-307.955 -3.2268 0
-306.333 -3.22504 0
-304.71 -3.22513 0
-303.089 -3.22167 0
-301.467 -3.22091 0
-299.847 -3.2214 0
-298.225 -3.22117 0
-296.605 -3.21788 0
-294.984 -3.21879 0
-293.363 -3.21845 0
-291.742 -3.21768 0
-290.121 -3.21612 0
-288.5 -3.21429 0
-286.879 -3.21347 0
-285.257 -3.21091 0
-283.637 -3.21041 0
-282.015 -3.2135 0
-280.392 -3.2123 0
-278.773 -3.21096 0
-277.152 -3.21139 0
-275.53 -3.21242 0
-273.909 -3.20956 0
-272.288 -3.20844 0
-270.669 -3.20791 0
-269.047 -3.20906 0
-267.426 -3.2072 0
-265.805 -3.20565 0
-264.185 -3.20539 0
-262.565 -3.20296 0
-260.944 -3.20245 0
-259.321 -3.20306 0
-257.7 -3.20486 0
-256.08 -3.20299 0
-254.458 -3.20089 0
-252.836 -3.20151 0
-251.215 -3.20094 0
-249.592 -3.20156 0
-247.972 -3.19987 0
-246.352 -3.19975 0
-244.729 -3.19989 0
-243.108 -3.20049 0
-241.488 -3.20031 0
-239.867 -3.20102 0
-238.245 -3.20232 0
-236.624 -3.20044 0
-235.003 -3.1988 0
-233.383 -3.19819 0
-231.761 -3.19805 0
-230.139 -3.19722 0
-228.518 -3.19657 0
-226.896 -3.19489 0
-225.275 -3.1946 0
-223.655 -3.19846 0
-222.034 -3.19922 0
-220.413 -3.19742 0
-218.792 -3.19966 0
-217.17 -3.19699 0
-215.549 -3.19736 0
-213.927 -3.19859 0
-212.307 -3.19943 0
-210.687 -3.19648 0
-209.064 -3.19797 0
-207.442 -3.19816 0
-205.82 -3.19691 0
-204.201 -3.19748 0
-202.581 -3.19639 0
-200.96 -3.19509 0
-199.34 -3.19652 0
-197.718 -3.19617 0
-196.098 -3.19587 0
-194.477 -3.1975 0
-192.856 -3.19789 0
-191.235 -3.19785 0
-189.615 -3.19763 0
-187.994 -3.19603 0
-186.372 -3.19995 0
-184.749 -3.20095 0
-183.129 -3.19954 0
-181.508 -3.20062 0
-179.888 -3.20048 0
-178.267 -3.19787 0
-176.646 -3.19743 0
-175.028 -3.19796 0
-173.406 -3.19608 0
-171.785 -3.19599 0
-170.162 -3.1961 0
-168.542 -3.19541 0
-166.921 -3.19428 0
-165.3 -3.19578 0
-163.679 -3.19701 0
-162.061 -3.19888 0
-160.439 -3.19947 0
-158.819 -3.19898 0
-157.199 -3.19868 0
-155.578 -3.19874 0
-153.957 -3.19779 0
-152.335 -3.19532 0
-150.715 -3.19581 0
-149.093 -3.19834 0
-147.472 -3.19933 0
-145.85 -3.19939 0
-144.229 -3.20046 0
-142.609 -3.20087 0
-140.986 -3.20055 0
-139.366 -3.19968 0
-137.748 -3.19963 0
-136.126 -3.19923 0
-134.507 -3.20037 0
-132.886 -3.19948 0
-131.266 -3.20012 0
-129.646 -3.19967 0
-128.026 -3.19731 0
-126.405 -3.19957 0
-124.784 -3.20148 0
-123.16 -3.20273 0
-121.54 -3.20102 0
-119.921 -3.19971 0
-118.299 -3.19984 0
-116.678 -3.2017 0
-115.057 -3.20221 0
-113.436 -3.20247 0
-111.816 -3.20206 0
-110.194 -3.20148 0
-108.575 -3.20247 0
-106.954 -3.20431 0
-105.333 -3.20338 0
-103.714 -3.20399 0
-102.094 -3.20419 0
-100.474 -3.20297 0
-98.8538 -3.20354 0
-97.2321 -3.2058 0
-95.6097 -3.2052 0
-93.9896 -3.2055 0
-92.3694 -3.2057 0
-90.7499 -3.2055 0
-89.1291 -3.20455 0
-87.5084 -3.20449 0
-85.888 -3.20408 0
-84.2664 -3.20488 0
-82.6457 -3.2048 0
-81.0262 -3.20504 0
-79.406 -3.20577 0
-77.7863 -3.20639 0
-76.1658 -3.20663 0
-74.5452 -3.20858 0
-72.924 -3.20785 0
-71.3028 -3.2059 0
-69.6812 -3.20635 0
-68.0612 -3.20631 0
-66.4401 -3.20639 0
-64.8195 -3.20637 0
-63.2006 -3.20548 0
-61.5809 -3.20481 0
-59.9586 -3.20584 0
-58.3391 -3.20412 0
-56.7193 -3.20474 0
-55.099 -3.20578 0
-53.4791 -3.20538 0
-51.8589 -3.204 0
-50.2371 -3.2054 0
-48.6156 -3.20507 0
-46.9949 -3.20469 0
-45.3747 -3.20534 0
-43.754 -3.20373 0
-42.1331 -3.20589 0
-40.5122 -3.20497 0
-38.8916 -3.20423 0
-37.2716 -3.20497 0
-35.6499 -3.20471 0
-34.0299 -3.20477 0
-32.4112 -3.20435 0
-30.7893 -3.20342 0
-29.1689 -3.20503 0
-27.5466 -3.2052 0
-25.9269 -3.20326 0
-24.3067 -3.20401 0
-22.6853 -3.20519 0
-21.0637 -3.20592 0
-19.4429 -3.20729 0
-17.8225 -3.20542 0
-16.2018 -3.2053 0
-14.5813 -3.2034 0
-12.9616 -3.20136 0
-11.341 -3.20247 0
-9.72046 -3.20396 0
-8.10078 -3.20133 0
-6.48065 -3.20285 0
-4.86065 -3.20394 0
-3.24153 -3.20448 0
-1.62039 -3.20416 0
0 -3.20312 0
-1101.65 58.9575 0
-1101.29 52.1423 0
-1101.06 45.7733 0
-1100.79 39.7064 0
-1100.52 33.9224 0
-1100.25 28.4157 0
-1099.96 23.1973 0
-1099.6 18.278 0
-1099.17 13.6948 0
-1098.68 9.4867 0
-1098.16 5.66724 0
-1097.62 2.23168 0
-1097.05 -0.829635 0
-1096.47 -3.53444 0
-1095.86 -5.90356 0
-1095.23 -7.96201 0
-1094.58 -9.7362 0
-1093.9 -11.2532 0
-1093.18 -12.5379 0
-1092.44 -13.6151 0
-1091.66 -14.5068 0
-1090.85 -15.232 0
-1090.01 -15.8087 0
-1089.13 -16.2528 0
-1088.22 -16.5783 0
-1087.28 -16.798 0
-1086.31 -16.9221 0
-1085.31 -16.9602 0
-1084.29 -16.9215 0
-1083.23 -16.8127 0
-1082.15 -16.641 0
-1081.04 -16.4123 0
-1079.9 -16.1313 0
-1078.74 -15.8032 0
-1077.56 -15.4333 0
-1076.35 -15.0247 0
-1075.12 -14.5818 0
-1073.87 -14.1087 0
-1072.59 -13.6085 0
-1071.29 -13.0851 0
-1069.97 -12.5406 0
-1068.63 -11.9796 0
-1067.26 -11.4038 0
-1065.88 -10.8166 0
-1064.48 -10.2207 0
-1063.06 -9.61947 0
-1061.62 -9.0143 0
-1060.16 -8.40804 0
-1058.68 -7.80295 0
-1057.19 -7.20152 0
-1055.68 -6.60508 0
-1054.16 -6.016 0
-1052.62 -5.43582 0
-1051.07 -4.86539 0
-1049.51 -4.30679 0
-1047.93 -3.76086 0
-1046.34 -3.23015 0
-1044.74 -2.7147 0
-1043.13 -2.21558 0
-1041.51 -1.73346 0
-1039.88 -1.26958 0
-1038.24 -0.823718 0
-1036.59 -0.3973 0
-1034.94 0.0094668 0
-1033.28 0.396455 0
-1031.61 0.762898 0
-1029.94 1.1088 0
-1028.26 1.43374 0
-1026.57 1.73815 0
-1024.88 2.02151 0
-1023.19 2.28437 0
-1021.5 2.5266 0
-1019.8 2.7486 0
-1018.1 2.94923 0
-1016.4 3.13068 0
-1014.69 3.29137 0
-1012.99 3.43323 0
-1011.28 3.55593 0
-1009.57 3.66043 0
-1007.86 3.74626 0
-1006.16 3.81486 0
-1004.45 3.86601 0
-1002.74 3.90079 0
-1001.04 3.91905 0
-999.336 3.92146 0
-997.633 3.9092 0
-995.932 3.88255 0
-994.233 3.84288 0
-992.535 3.78967 0
-990.84 3.72422 0
-989.147 3.64671 0
-987.456 3.5586 0
-985.768 3.46003 0
-984.082 3.35146 0
-982.399 3.23323 0
-980.719 3.10686 0
-979.042 2.97284 0
-977.368 2.83092 0
-975.696 2.68344 0
-974.027 2.52949 0
-972.362 2.37032 0
-970.698 2.20614 0