<?xml version="1.0"?>
<VTKFile type="StructuredGrid"  version="0.1" byte_order="LittleEndian" compressor="vtkZLibDataCompressor">
  <StructuredGrid WholeExtent="0 700 0 30 0 0">
    <Piece Extent="0 700 0 30 0 0">
      <PointData Vectors="Velocity">
        <DataArray type="Float32" Name="Velocity" NumberOfComponents="3" format="ascii">
-1082.17 50.3728 0
-1082.42 44.2093 0
-1082.74 38.2364 0
-1083.09 32.5824 0
-1083.41 27.2816 0
-1083.64 22.2382 0
-1083.88 17.3879 0
-1084.17 12.833 0
-1084.46 8.66126 0
-1084.72 4.88616 0
-1084.94 1.49702 0
-1085.13 -1.51939 0
-1085.26 -4.17845 0
-1085.34 -6.50059 0
-1085.34 -8.51064 0
-1085.27 -10.2355 0
-1085.12 -11.7 0
-1084.89 -12.9306 0
-1084.58 -13.9506 0
-1084.18 -14.7826 0
-1083.72 -15.4466 0
-1083.17 -15.9622 0
-1082.56 -16.3448 0
-1081.88 -16.6107 0
-1081.15 -16.7725 0
-1080.35 -16.8426 0
-1079.51 -16.8308 0
-1078.61 -16.7477 0
-1077.67 -16.6009 0
-1076.69 -16.3987 0
-1075.66 -16.1466 0
-1074.6 -15.8511 0
-1073.5 -15.5168 0
-1072.36 -15.1492 0
-1071.2 -14.7521 0
-1070 -14.33 0
-1068.77 -13.886 0
-1067.51 -13.4241 0
-1066.22 -12.9467 0
-1064.9 -12.4572 0
-1063.56 -11.9585 0
-1062.19 -11.453 0
-1060.8 -10.9427 0
-1059.39 -10.431 0
-1057.95 -9.91935 0
-1056.49 -9.40999 0
-1055.01 -8.9051 0
-1053.5 -8.40659 0
-1051.98 -7.91566 0
-1050.45 -7.43476 0
-1048.89 -6.96425 0
-1047.32 -6.50626 0
-1045.73 -6.06148 0
-1044.13 -5.63065 0
-1042.52 -5.21544 0
-1040.9 -4.81606 0
-1039.26 -4.43355 0
-1037.61 -4.06763 0
-1035.95 -3.72043 0
-1034.29 -3.39158 0
-1032.62 -3.08082 0
-1030.93 -2.78928 0
-1029.25 -2.51698 0
-1027.56 -2.26371 0
-1025.86 -2.02922 0
-1024.15 -1.81336 0
-1022.45 -1.61706 0
-1020.74 -1.43931 0
-1019.03 -1.2801 0
-1017.32 -1.13942 0
-1015.6 -1.01622 0
-1013.89 -0.911583 0
-1012.17 -0.821666 0
-1010.45 -0.749606 0
-1008.74 -0.693934 0
-1007.02 -0.654256 0
-1005.31 -0.629234 0
-1003.6 -0.61862 0
-1001.89 -0.621883 0
-1000.18 -0.638672 0
-998.478 -0.668423 0
-996.777 -0.710202 0
-995.077 -0.762984 0
-993.382 -0.826439 0
-991.69 -0.900579 0
-990.001 -0.983628 0
-988.315 -1.0763 0
-986.634 -1.17692 0
-984.956 -1.28525 0
-983.282 -1.40012 0
-981.612 -1.5217 0
-979.945 -1.64889 0
-978.284 -1.78062 0
-976.625 -1.91672 0
-974.971 -2.05701 0
-973.321 -2.20081 0
-971.675 -2.34667 0
-970.033 -2.49509 0
-968.395 -2.64486 0
-966.761 -2.79594 0
-965.129 -2.94756 0
-963.501 -3.09834 0
-961.877 -3.25057 0
-960.257 -3.40128 0
-958.639 -3.55022 0
-957.025 -3.69776 0
-955.414 -3.84366 0
-953.806 -3.9872 0
-952.2 -4.12791 0
-950.597 -4.26569 0
-948.997 -4.4001 0
-947.398 -4.53121 0
-945.803 -4.65865 0
-944.209 -4.78219 0
-942.617 -4.9013 0
-941.027 -5.01692 0
-939.439 -5.12759 0
-937.852 -5.23273 0
-936.266 -5.33435 0
-934.682 -5.43071 0
-933.1 -5.52101 0
-931.517 -5.60727 0
-929.935 -5.68891 0
-928.354 -5.76515 0
-926.774 -5.83511 0
-925.196 -5.90066 0
-923.616 -5.96101 0
-922.037 -6.01726 0
-920.459 -6.06739 0
-918.881 -6.11266 0
-917.302 -6.15377 0
-915.724 -6.18919 0
-914.146 -6.2211 0
-912.567 -6.2468 0
-910.988 -6.26843 0
-909.407 -6.28604 0
-907.826 -6.29915 0
-906.246 -6.30763 0
-904.665 -6.31238 0
-903.082 -6.3136 0
-901.5 -6.31096 0
-899.916 -6.30432 0
-898.332 -6.29436 0
-896.747 -6.27936 0
-895.161 -6.26237 0
-893.574 -6.24389 0
-891.986 -6.22027 0
-890.396 -6.19502 0
-888.806 -6.16583 0
-887.215 -6.13589 0
-885.623 -6.10415 0
-884.031 -6.06901 0
-882.436 -6.03263 0
-880.841 -5.99409 0
-879.245 -5.95413 0
-877.648 -5.91268 0
-876.049 -5.86921 0
-874.449 -5.8249 0
-872.849 -5.77996 0
-871.248 -5.73431 0
-869.645 -5.6886 0
-868.041 -5.64222 0
-866.438 -5.5952 0
-864.832 -5.5472 0
-863.225 -5.50091 0
-861.619 -5.45188 0
-860.011 -5.40491 0
-858.403 -5.35781 0
-856.794 -5.3097 0
-855.183 -5.26184 0
-853.573 -5.21547 0
-851.96 -5.16965 0
-850.348 -5.1248 0
-848.735 -5.07912 0
-847.121 -5.03481 0
-845.506 -4.99175 0
-843.89 -4.94933 0
-842.275 -4.90893 0
-840.659 -4.86883 0
-839.042 -4.83048 0
-837.425 -4.79331 0
-835.808 -4.75712 0
-834.19 -4.72233 0
-832.572 -4.68893 0
-830.953 -4.6562 0
-829.335 -4.62503 0
-827.716 -4.59605 0
-826.097 -4.56785 0
-824.476 -4.54045 0
-822.856 -4.51461 0
-821.237 -4.49064 0
-819.616 -4.46807 0
-817.996 -4.44666 0
-816.375 -4.42821 0
-814.754 -4.41039 0
-813.134 -4.3942 0
-811.514 -4.37923 0
-809.893 -4.36612 0
-808.274 -4.35287 0
-806.654 -4.34206 0
-805.034 -4.3325 0
-803.414 -4.32409 0
-801.793 -4.31757 0
-800.172 -4.31257 0
-798.553 -4.30981 0
-796.934 -4.30498 0
-795.315 -4.30267 0
-793.696 -4.30065 0
-792.076 -4.30231 0
-790.458 -4.30413 0
-788.839 -4.30624 0
-787.221 -4.31007 0
-785.603 -4.31661 0
-783.986 -4.31958 0
-782.368 -4.32585 0
-780.75 -4.33432 0
-779.132 -4.34299 0
-777.518 -4.35047 0
-775.9 -4.35987 0
-774.284 -4.36991 0
-772.669 -4.38156 0
-771.054 -4.3932 0
-769.44 -4.40441 0
-767.825 -4.41786 0
-766.211 -4.43001 0
-764.597 -4.44389 0
-762.981 -4.45679 0
-761.367 -4.47019 0
-759.754 -4.48466 0
-758.142 -4.49918 0
-756.529 -4.51317 0
-754.917 -4.52698 0
-753.304 -4.54204 0
-751.691 -4.55753 0
-750.079 -4.5735 0
-748.468 -4.59078 0
-746.857 -4.60504 0
-745.245 -4.61889 0
-743.635 -4.63466 0
-742.024 -4.64924 0
-740.414 -4.66538 0
-738.804 -4.67921 0
-737.195 -4.69392 0
-735.585 -4.70705 0
-733.976 -4.72145 0
-732.367 -4.73581 0
-730.758 -4.74938 0
-729.149 -4.76165 0
-727.541 -4.77444 0
-725.934 -4.78651 0
-724.323 -4.79955 0
-722.715 -4.80947 0
-721.106 -4.82284 0
-719.499 -4.83374 0
-717.891 -4.8442 0
-716.283 -4.85424 0
-714.675 -4.86437 0
-713.067 -4.8741 0
-711.46 -4.88315 0
-709.853 -4.89251 0
-708.246 -4.90091 0
-706.638 -4.90717 0
-705.03 -4.9144 0
-703.423 -4.92042 0
-701.815 -4.92715 0
-700.208 -4.9322 0
-698.6 -4.93806 0
-696.993 -4.94284 0
-695.384 -4.94864 0
-693.777 -4.95141 0
-692.17 -4.95577 0
-690.563 -4.96 0
-688.955 -4.96205 0
-687.347 -4.96481 0
-685.74 -4.96737 0
-684.134 -4.96893 0
-682.526 -4.9712 0
-680.918 -4.97045 0
-679.31 -4.97183 0
-677.701 -4.97135 0
-676.094 -4.97073 0
-674.488 -4.97044 0
-672.879 -4.9713 0
-671.271 -4.96951 0
-669.663 -4.96633 0
-668.056 -4.96419 0
-666.449 -4.96124 0
-664.84 -4.95767 0
-663.23 -4.95737 0
-661.622 -4.95457 0
-660.013 -4.95042 0
-658.405 -4.94815 0
-656.799 -4.94365 0
-655.189 -4.94043 0
-653.581 -4.93758 0
-651.971 -4.93331 0
-650.361 -4.92912 0
-648.753 -4.92419 0
-647.144 -4.92034 0
-645.535 -4.91619 0
-643.927 -4.91124 0
-642.317 -4.90744 0
-640.707 -4.90151 0
-639.098 -4.8957 0
-637.488 -4.89118 0
-635.878 -4.88455 0
-634.267 -4.87792 0
-632.659 -4.8733 0
-631.048 -4.86672 0
-629.44 -4.86285 0
-627.829 -4.85787 0
-626.219 -4.85237 0
-624.609 -4.84679 0
-622.999 -4.84165 0
-621.389 -4.837 0
-619.779 -4.83109 0
-618.169 -4.82688 0
-616.559 -4.81993 0
-614.948 -4.81465 0
-613.337 -4.81039 0
-611.726 -4.8058 0
-610.115 -4.79986 0
-608.504 -4.79511 0
-606.893 -4.79068 0
-605.281 -4.7854 0
-603.67 -4.77923 0
-602.059 -4.77423 0
-600.448 -4.77181 0
-598.836 -4.77021 0
-597.227 -4.76445 0
-595.616 -4.75862 0
-594.003 -4.75714 0
-592.392 -4.75435 0
-590.781 -4.74926 0
-589.17 -4.74811 0
-587.558 -4.74293 0
-585.947 -4.7402 0
-584.336 -4.73884 0
-582.725 -4.73464 0
-581.114 -4.73195 0
-579.503 -4.72768 0
-577.892 -4.72666 0
-576.282 -4.72307 0
-574.67 -4.71994 0
-573.06 -4.71867 0
-571.447 -4.71544 0
-569.835 -4.71466 0
-568.223 -4.71612 0
-566.612 -4.71337 0
-565.001 -4.7123 0
-563.39 -4.7096 0
-561.779 -4.7086 0
-560.167 -4.71025 0
-558.556 -4.70918 0
-556.943 -4.70639 0
-555.332 -4.70582 0
-553.722 -4.70491 0
-552.11 -4.70494 0
-550.499 -4.70282 0
-548.889 -4.70327 0
-547.279 -4.70521 0
-545.67 -4.70471 0
-544.057 -4.70637 0
-542.445 -4.7066 0
-540.833 -4.7066 0
-539.222 -4.70817 0
-537.61 -4.70818 0
-536 -4.70913 0
-534.389 -4.71092 0
-532.778 -4.70957 0
-531.17 -4.71209 0
-529.559 -4.71257 0
-527.948 -4.71022 0
-526.338 -4.71287 0
-524.727 -4.71242 0
-523.116 -4.71548 0
-521.506 -4.71511 0
-519.895 -4.71568 0
-518.284 -4.71808 0
-516.674 -4.71985 0
-515.063 -4.72102 0
-513.451 -4.72153 0
-511.842 -4.7249 0
-510.23 -4.72636 0
-508.621 -4.72708 0
-507.011 -4.72819 0
-505.4 -4.72889 0
-503.791 -4.7305 0
-502.179 -4.73189 0
-500.569 -4.73423 0
-498.957 -4.73627 0
-497.348 -4.73873 0
-495.738 -4.73712 0
-494.128 -4.73958 0
-492.517 -4.74124 0
-490.906 -4.74255 0
-489.297 -4.74464 0
-487.687 -4.74653 0
-486.078 -4.7464 0
-484.467 -4.74804 0
-482.856 -4.75114 0
-481.247 -4.75183 0
-479.638 -4.75177 0
-478.029 -4.75418 0
-476.42 -4.75502 0
-474.809 -4.75632 0
-473.199 -4.75715 0
-471.59 -4.75835 0
-469.979 -4.7611 0
-468.369 -4.76082 0
-466.76 -4.76009 0
-465.149 -4.76234 0
-463.54 -4.76407 0
-461.93 -4.76512 0
-460.321 -4.76665 0
-458.711 -4.76914 0
-457.1 -4.77006 0
-455.492 -4.76959 0
-453.883 -4.7704 0
-452.272 -4.77177 0
-450.662 -4.77275 0
-449.053 -4.77371 0
-447.441 -4.77202 0
-445.832 -4.77354 0
-444.222 -4.77361 0
-442.612 -4.77492 0
-441.002 -4.77379 0
-439.393 -4.77636 0
-437.783 -4.77603 0
-436.175 -4.77717 0
-434.565 -4.77666 0
-432.956 -4.77647 0
-431.347 -4.77912 0
-429.735 -4.77929 0
-428.127 -4.78127 0
-426.515 -4.77979 0
-424.904 -4.78048 0
-423.295 -4.78165 0
-421.685 -4.78254 0
-420.078 -4.77956 0
-418.467 -4.77691 0
-416.855 -4.77905 0
-415.245 -4.7796 0
-413.636 -4.78101 0
-412.028 -4.77936 0
-410.418 -4.77796 0
-408.808 -4.77742 0
-407.198 -4.77813 0
-405.588 -4.77815 0
-403.98 -4.77692 0
-402.369 -4.77771 0
-400.758 -4.77473 0
-399.147 -4.77558 0
-397.538 -4.77285 0
-395.929 -4.77378 0
-394.32 -4.77262 0
-392.708 -4.77169 0
-391.1 -4.77337 0
-389.489 -4.77299 0
-387.88 -4.77119 0
-386.271 -4.76897 0
-384.662 -4.76929 0
-383.049 -4.77039 0
-381.44 -4.76972 0
-379.831 -4.76833 0
-378.221 -4.76912 0
-376.611 -4.7672 0
-375.002 -4.76837 0
-373.394 -4.76647 0
-371.784 -4.76627 0
-370.174 -4.76282 0
-368.563 -4.76193 0
-366.953 -4.76241 0
-365.342 -4.76373 0
-363.732 -4.76331 0
-362.124 -4.76321 0
-360.513 -4.76001 0
-358.904 -4.761 0
-357.294 -4.76053 0
-355.686 -4.76112 0
-354.074 -4.75979 0
-352.464 -4.75971 0
-350.855 -4.75817 0
-349.243 -4.75712 0
-347.634 -4.76011 0
-346.026 -4.75707 0
-344.413 -4.75692 0
-342.803 -4.75733 0
-341.194 -4.75674 0
-339.584 -4.75564 0
-337.974 -4.75861 0
-336.364 -4.75515 0
-334.755 -4.75656 0
-333.146 -4.75825 0
-331.537 -4.75557 0
-329.926 -4.75551 0
-328.318 -4.75619 0
-326.706 -4.75357 0
-325.097 -4.75461 0
-323.488 -4.75129 0
-321.878 -4.75272 0
-320.268 -4.75371 0
-318.659 -4.751 0
-317.05 -4.75224 0
-315.44 -4.74997 0
-313.832 -4.75121 0
-312.219 -4.75042 0
-310.609 -4.74986 0
-308.999 -4.75127 0
-307.391 -4.7525 0
-305.78 -4.74997 0
-304.171 -4.75021 0
-302.562 -4.75026 0
-300.95 -4.74917 0
-299.34 -4.7496 0
-297.73 -4.75142 0
-296.121 -4.74973 0
-294.51 -4.74902 0
-292.901 -4.74782 0
-291.293 -4.75002 0
-289.68 -4.74737 0
-288.071 -4.74827 0
-286.46 -4.74933 0
-284.849 -4.74917 0
-283.239 -4.74915 0
-281.632 -4.74934 0
-280.021 -4.74839 0
-278.411 -4.74625 0
-276.802 -4.74907 0
-275.195 -4.74903 0
-273.581 -4.74984 0
-271.973 -4.74737 0
-270.362 -4.74685 0
-268.754 -4.74941 0
-267.147 -4.75133 0
-265.537 -4.75221 0
-263.927 -4.75174 0
-262.318 -4.7514 0
-260.708 -4.75152 0
-259.099 -4.75124 0
-257.489 -4.75062 0
-255.878 -4.74933 0
-254.267 -4.75379 0
-252.659 -4.75173 0
-251.048 -4.7502 0
-249.44 -4.75008 0
-247.83 -4.74937 0
-246.22 -4.74908 0
-244.609 -4.74979 0
-243.002 -4.74969 0
-241.392 -4.75034 0
-239.785 -4.75223 0
-238.173 -4.75318 0
-236.562 -4.75412 0
-234.954 -4.75605 0
-233.344 -4.75614 0
-231.734 -4.75492 0
-230.126 -4.75453 0
-228.516 -4.75466 0
-226.906 -4.75467 0
-225.296 -4.7541 0
-223.687 -4.75445 0
-222.079 -4.75333 0
-220.467 -4.75259 0
-218.86 -4.75149 0
-217.252 -4.75224 0
-215.642 -4.75238 0
-214.033 -4.75443 0
-212.422 -4.75225 0
-210.812 -4.75224 0
-209.202 -4.75212 0
-207.592 -4.7531 0
-205.983 -4.75349 0
-204.372 -4.75653 0
-202.765 -4.75403 0
-201.154 -4.75458 0
-199.544 -4.7555 0
-197.935 -4.7565 0
-196.326 -4.75453 0
-194.718 -4.75629 0
-193.109 -4.7568 0
-191.499 -4.7541 0
-189.89 -4.75509 0
-188.281 -4.75653 0
-186.671 -4.75702 0
-185.06 -4.75659 0
-183.451 -4.7563 0
-181.841 -4.75576 0
-180.232 -4.7555 0
-178.623 -4.75578 0
-177.014 -4.75489 0
-175.405 -4.75682 0
-173.797 -4.75676 0
-172.187 -4.75583 0
-170.577 -4.75405 0
-168.968 -4.75609 0
-167.359 -4.757 0
-165.749 -4.75464 0
-164.139 -4.75441 0
-162.529 -4.75373 0
-160.919 -4.75586 0
-159.311 -4.75533 0
-157.701 -4.7564 0
-156.092 -4.7554 0
-154.482 -4.75645 0
-152.873 -4.75527 0
-151.264 -4.75449 0
-149.656 -4.75371 0
-148.045 -4.75322 0
-146.436 -4.75427 0
-144.826 -4.75408 0
-143.218 -4.75352 0
-141.608 -4.75434 0
-140 -4.75448 0
-138.39 -4.75348 0
-136.782 -4.7528 0
-135.173 -4.75353 0
-133.562 -4.75574 0
-131.952 -4.75452 0
-130.343 -4.75611 0
-128.733 -4.75308 0
-127.123 -4.75443 0
-125.515 -4.75423 0
-123.905 -4.75466 0
-122.297 -4.75412 0
-120.688 -4.75532 0
-119.08 -4.7558 0
-117.469 -4.75618 0
-115.859 -4.75491 0
-114.249 -4.75523 0
-112.64 -4.75489 0
-111.031 -4.75529 0
-109.421 -4.75548 0
-107.811 -4.75527 0
-106.203 -4.75685 0
-104.594 -4.75711 0
-102.986 -4.75609 0
-101.377 -4.75556 0
-99.7669 -4.75541 0
-98.1583 -4.75663 0
-96.5497 -4.75575 0
-94.9383 -4.75735 0
-93.331 -4.7573 0
-91.7227 -4.75739 0
-90.1123 -4.75717 0
-88.5018 -4.75604 0
-86.8929 -4.75567 0
-85.2835 -4.75567 0
-83.6728 -4.75514 0
-82.0647 -4.75644 0
-80.4562 -4.75473 0
-78.8478 -4.75381 0
-77.2385 -4.75397 0
-75.6283 -4.75573 0
-74.0191 -4.75637 0
-72.4107 -4.75603 0
-70.8015 -4.75543 0
-69.1922 -4.7561 0
-67.5847 -4.7562 0
-65.9756 -4.75578 0
-64.366 -4.75528 0
-62.7564 -4.75509 0
-61.1468 -4.75799 0
-59.5385 -4.75531 0
-57.9292 -4.75501 0
-56.3188 -4.75463 0
-54.709 -4.75661 0
-53.099 -4.75613 0
-51.4906 -4.75439 0
-49.8827 -4.75495 0
-48.274 -4.75654 0
-46.6649 -4.75387 0
-45.0561 -4.75295 0
-43.4464 -4.75261 0
-41.8367 -4.75341 0
-40.2254 -4.75475 0
-38.6175 -4.75501 0
-37.0088 -4.75455 0
-35.3994 -4.75524 0
-33.7923 -4.75543 0
-32.1833 -4.7533 0
-30.5735 -4.75228 0
-28.9639 -4.7533 0
-27.3555 -4.75415 0
-25.747 -4.75278 0
-24.139 -4.75359 0
-22.5275 -4.75274 0
-20.9193 -4.75255 0
-19.3104 -4.75126 0
-17.7002 -4.75218 0
-16.0889 -4.75279 0
-14.4816 -4.74963 0
-12.8747 -4.75053 0
-11.2654 -4.75058 0
-9.65425 -4.75221 0
-8.04593 -4.75278 0
-6.43815 -4.75264 0
-4.82767 -4.7531 0
-3.2187 -4.75245 0
-1.60933 -4.75206 0
0 -4.75284 0
-1088.33 50.669 0
-1088.43 44.4424 0
-1088.5 38.439 0
-1088.51 32.7634 0
-1088.53 27.4455 0
-1088.6 22.3923 0
-1088.64 17.5343 0
-1088.59 12.97 0
-1088.48 8.78903 0
-1088.36 5.00921 0
-1088.2 1.62273 0
-1088.02 -1.38116 0
-1087.81 -4.01727 0
-1087.55 -6.30626 0
-1087.25 -8.27286 0
-1086.9 -9.94604 0
-1086.5 -11.3537 0
-1086.04 -12.5237 0
-1085.52 -13.4817 0
-1084.95 -14.2518 0
-1084.32 -14.8554 0
-1083.63 -15.312 0
-1082.89 -15.6389 0
-1082.11 -15.8512 0
-1081.27 -15.9628 0
-1080.39 -15.9853 0
-1079.46 -15.9292 0
-1078.5 -15.8039 0
-1077.5 -15.6174 0
-1076.46 -15.3776 0
-1075.39 -15.0901 0
-1074.29 -14.7606 0
-1073.15 -14.3938 0
-1071.99 -13.9952 0
-1070.79 -13.5681 0
-1069.57 -13.1169 0
-1068.32 -12.6451 0
-1067.05 -12.1559 0
-1065.75 -11.6527 0
-1064.42 -11.1378 0
-1063.07 -10.6146 0
-1061.7 -10.0852 0
-1060.3 -9.55279 0
-1058.89 -9.01886 0
-1057.45 -8.48649 0
-1055.99 -7.95739 0
-1054.52 -7.43373 0
-1053.02 -6.91662 0
-1051.51 -6.40855 0
-1049.98 -5.91136 0
-1048.44 -5.42571 0
-1046.88 -4.9529 0
-1045.31 -4.49437 0
-1043.72 -4.05102 0
-1042.13 -3.62413 0
-1040.52 -3.21364 0
-1038.9 -2.82053 0
-1037.27 -2.44604 0
-1035.63 -2.0898 0
-1033.98 -1.75276 0
-1032.33 -1.43538 0
-1030.66 -1.1376 0
-1028.99 -0.859944 0
-1027.32 -0.601157 0
-1025.64 -0.362233 0
-1023.96 -0.142879 0
-1022.27 0.0566649 0
-1020.58 0.237144 0
-1018.89 0.398041 0
-1017.19 0.540628 0
-1015.49 0.664551 0
-1013.79 0.770606 0
-1012.09 0.859884 0
-1010.39 0.932077 0
-1008.7 0.986819 0
-1007 1.02592 0
-1005.3 1.04994 0
-1003.6 1.05831 0
-1001.9 1.05321 0
-1000.21 1.03423 0
-998.516 1.00229 0
-996.826 0.958265 0
-995.138 0.902675 0
-993.452 0.836274 0
-991.769 0.758811 0
-990.089 0.672512 0
-988.412 0.57676 0
-986.737 0.47261 0
-985.067 0.360996 0
-983.399 0.242488 0
-981.735 0.117552 0
-980.074 -0.0137067 0
-978.417 -0.148966 0
-976.762 -0.288737 0
-975.112 -0.432957 0
-973.465 -0.580162 0
-971.821 -0.729661 0
-970.18 -0.881213 0
-968.543 -1.03486 0
-966.909 -1.18946 0
-965.278 -1.34387 0
-963.651 -1.4982 0
-962.026 -1.65312 0
-960.405 -1.80687 0
-958.786 -1.95901 0
-957.169 -2.10976 0
-955.555 -2.25775 0
-953.945 -2.40386 0
-952.336 -2.54705 0
-950.731 -2.68719 0
-949.127 -2.8239 0
-947.526 -2.95724 0
-945.926 -3.08672 0
-944.328 -3.21195 0
-942.732 -3.33288 0
-941.138 -3.44963 0
-939.545 -3.56235 0
-937.953 -3.66951 0
-936.364 -3.7716 0
-934.774 -3.8688 0
-933.186 -3.96036 0
-931.599 -4.04693 0
-930.012 -4.12943 0
-928.426 -4.20608 0
-926.841 -4.27742 0
-925.257 -4.34342 0
-923.673 -4.40366 0
-922.09 -4.45998 0
-920.506 -4.51072 0
-918.923 -4.55586 0
-917.34 -4.59691 0
-915.757 -4.63254 0
-914.173 -4.66339 0
-912.59 -4.68988 0
-911.006 -4.71102 0
-909.422 -4.72786 0
-907.838 -4.74058 0
-906.252 -4.74879 0
-904.667 -4.7532 0
-903.082 -4.75335 0
-901.495 -4.7496 0
-899.908 -4.7429 0
-898.32 -4.73148 0
-896.732 -4.71668 0
-895.143 -4.69864 0
-893.553 -4.67824 0
-891.962 -4.65391 0
-890.37 -4.62755 0
-888.778 -4.59784 0
-887.184 -4.56731 0
-885.59 -4.53453 0
-883.995 -4.49842 0
-882.399 -4.46082 0
-880.802 -4.42139 0
-879.205 -4.38035 0
-877.606 -4.33773 0
-876.006 -4.29398 0
-874.406 -4.24865 0
-872.805 -4.20254 0
-871.203 -4.15629 0
-869.599 -4.10916 0
-867.996 -4.062 0
-866.391 -4.01415 0
-864.785 -3.96569 0
-863.179 -3.91786 0
-861.572 -3.86885 0
-859.965 -3.82055 0
-858.356 -3.77273 0
-856.746 -3.724 0
-855.137 -3.67562 0
-853.526 -3.62806 0
-851.915 -3.58169 0
-850.303 -3.53577 0
-848.69 -3.48995 0
-847.077 -3.4452 0
-845.464 -3.40189 0
-843.85 -3.3586 0
-842.235 -3.31776 0
-840.62 -3.27759 0
-839.004 -3.23817 0
-837.389 -3.20132 0
-835.773 -3.16471 0
-834.157 -3.12928 0
-832.539 -3.09585 0
-830.922 -3.06236 0
-829.305 -3.03085 0
-827.687 -3.00153 0
-826.069 -2.97285 0
-824.45 -2.94553 0
-822.832 -2.9197 0
-821.213 -2.89567 0
-819.594 -2.87267 0
-817.976 -2.85158 0
-816.357 -2.8323 0
-814.738 -2.81488 0
-813.119 -2.79874 0
-811.5 -2.78415 0
-809.881 -2.77096 0
-808.262 -2.75846 0
-806.643 -2.74692 0
-805.024 -2.73793 0
-803.406 -2.72938 0
-801.788 -2.72243 0
-800.169 -2.71842 0
-798.55 -2.71451 0
-796.931 -2.71076 0
-795.314 -2.70823 0
-793.696 -2.70734 0
-792.078 -2.70815 0
-790.46 -2.71013 0
-788.842 -2.71256 0
-787.225 -2.717 0
-785.608 -2.72193 0
-783.991 -2.72728 0
-782.376 -2.73312 0
-780.759 -2.742 0
-779.143 -2.75004 0
-777.527 -2.75837 0
-775.91 -2.76827 0
-774.295 -2.77891 0
-772.68 -2.79044 0
-771.065 -2.80225 0
-769.451 -2.81523 0
-767.837 -2.82711 0
-766.223 -2.84061 0
-764.609 -2.85347 0
-762.995 -2.86709 0
-761.381 -2.88113 0
-759.769 -2.89596 0
-758.156 -2.91074 0
-756.543 -2.92507 0
-754.931 -2.93897 0
-753.318 -2.95419 0
-751.707 -2.97012 0
-750.095 -2.98603 0
-748.483 -3.00244 0
-746.87 -3.01793 0
-745.26 -3.03309 0
-743.651 -3.04866 0
-742.039 -3.06375 0
-740.429 -3.07898 0
-738.819 -3.09311 0
-737.208 -3.10714 0
-735.598 -3.1224 0
-733.989 -3.13633 0
-732.381 -3.15077 0
-730.771 -3.16389 0
-729.162 -3.17701 0
-727.553 -3.1902 0
-725.944 -3.2023 0
-724.335 -3.21464 0
-722.727 -3.22522 0
-721.117 -3.23784 0
-719.509 -3.24972 0
-717.901 -3.26055 0
-716.292 -3.27075 0
-714.684 -3.2811 0
-713.076 -3.29039 0
-711.469 -3.3 0
-709.86 -3.30782 0
-708.252 -3.31648 0
-706.645 -3.32337 0
-705.036 -3.33117 0
-703.429 -3.337 0
-701.821 -3.34302 0
-700.213 -3.34914 0
-698.606 -3.35489 0
-696.997 -3.3597 0
-695.389 -3.36512 0
-693.781 -3.36855 0
-692.173 -3.3716 0
-690.565 -3.37631 0
-688.957 -3.37828 0
-687.35 -3.38136 0
-685.742 -3.38435 0
-684.135 -3.3861 0
-682.527 -3.38656 0
-680.918 -3.38692 0
-679.311 -3.38785 0
-677.702 -3.38757 0
-676.094 -3.38781 0
-674.487 -3.38638 0
-672.878 -3.38589 0
-671.27 -3.38517 0
-669.662 -3.38257 0
-668.054 -3.3805 0
-666.446 -3.37706 0
-664.837 -3.37409 0
-663.229 -3.37168 0
-661.62 -3.36948 0
-660.011 -3.36707 0
-658.403 -3.3643 0
-656.793 -3.36009 0
-655.185 -3.35667 0
-653.576 -3.35225 0
-651.967 -3.34806 0
-650.358 -3.34344 0
-648.749 -3.33887 0
-647.14 -3.33466 0
-645.531 -3.3308 0
-643.922 -3.32607 0
-642.312 -3.32094 0
-640.703 -3.31538 0
-639.093 -3.31036 0
-637.483 -3.30467 0
-635.873 -3.2991 0
-634.264 -3.2928 0
-632.653 -3.28826 0
-631.045 -3.28176 0
-629.435 -3.27635 0
-627.825 -3.27199 0
-626.213 -3.26597 0
-624.604 -3.26095 0
-622.994 -3.25659 0
-621.384 -3.25103 0
-619.775 -3.24546 0
-618.164 -3.23963 0
-616.553 -3.23341 0
-614.942 -3.22905 0
-613.331 -3.22409 0
-611.722 -3.21887 0
-610.111 -3.21462 0
-608.5 -3.20864 0
-606.889 -3.20355 0
-605.277 -3.19794 0
-603.666 -3.19249 0
-602.055 -3.18826 0
-600.444 -3.18522 0
-598.833 -3.18277 0
-597.222 -3.17774 0
-595.612 -3.17397 0
-594 -3.16981 0
-592.389 -3.1671 0
-590.778 -3.16287 0
-589.166 -3.16001 0
-587.556 -3.15631 0
-585.945 -3.15322 0
-584.334 -3.15076 0
-582.722 -3.14821 0
-581.111 -3.1444 0
-579.501 -3.14119 0
-577.89 -3.13952 0
-576.278 -3.1357 0
-574.669 -3.13327 0
-573.058 -3.13153 0
-571.445 -3.12942 0
-569.834 -3.12858 0
-568.223 -3.12805 0
-566.611 -3.12659 0
-564.999 -3.12429 0
-563.389 -3.12274 0
-561.778 -3.1222 0
-560.166 -3.12298 0
-558.554 -3.12055 0
-556.943 -3.11934 0
-555.333 -3.11828 0
-553.721 -3.11839 0
-552.111 -3.11733 0
-550.499 -3.11761 0
-548.889 -3.11761 0
-547.279 -3.11831 0
-545.669 -3.11832 0
-544.057 -3.11809 0
-542.446 -3.11947 0
-540.834 -3.12097 0
-539.224 -3.12094 0
-537.612 -3.12171 0
-536 -3.12231 0
-534.39 -3.12301 0
-532.78 -3.12449 0
-531.17 -3.12563 0
-529.559 -3.12516 0
-527.949 -3.12486 0
-526.339 -3.12627 0
-524.728 -3.12585 0
-523.116 -3.1277 0
-521.506 -3.12907 0
-519.896 -3.13079 0
-518.286 -3.13205 0
-516.674 -3.13314 0
-515.064 -3.13547 0
-513.454 -3.13647 0
-511.843 -3.1382 0
-510.233 -3.13951 0
-508.623 -3.14146 0
-507.012 -3.14255 0
-505.401 -3.14358 0
-503.791 -3.1437 0
-502.181 -3.14603 0
-500.57 -3.14819 0
-498.959 -3.14991 0
-497.349 -3.1514 0
-495.739 -3.15207 0
-494.131 -3.15362 0
-492.52 -3.15536 0
-490.909 -3.15668 0
-489.298 -3.1592 0
-487.689 -3.16063 0
-486.078 -3.16083 0
-484.468 -3.16202 0
-482.858 -3.16353 0
-481.248 -3.1651 0
-479.638 -3.16807 0
-478.029 -3.16762 0
-476.42 -3.16939 0
-474.811 -3.16992 0
-473.2 -3.17182 0
-471.59 -3.17423 0
-469.98 -3.17317 0
-468.369 -3.17527 0
-466.76 -3.17461 0
-465.152 -3.17723 0
-463.542 -3.17845 0
-461.932 -3.18013 0
-460.322 -3.18094 0
-458.712 -3.18347 0
-457.102 -3.18399 0
-455.491 -3.18431 0
-453.884 -3.1844 0
-452.273 -3.18523 0
-450.662 -3.18715 0
-449.052 -3.18709 0
-447.441 -3.18582 0
-445.832 -3.18786 0
-444.222 -3.18772 0
-442.611 -3.18924 0
-441.002 -3.18843 0
-439.394 -3.18995 0
-437.784 -3.19007 0
-436.174 -3.19167 0
-434.564 -3.1917 0
-432.955 -3.19128 0
-431.346 -3.19166 0
-429.735 -3.19272 0
-428.125 -3.1947 0
-426.516 -3.19431 0
-424.906 -3.19443 0
-423.295 -3.19477 0
-421.686 -3.19548 0
-420.075 -3.19417 0
-418.466 -3.1915 0
-416.856 -3.19375 0
-415.247 -3.19413 0
-413.636 -3.19418 0
-412.026 -3.19437 0
-410.417 -3.19302 0
-408.806 -3.1924 0
-407.198 -3.19275 0
-405.588 -3.19257 0
-403.978 -3.19138 0
-402.368 -3.18958 0
-400.757 -3.19064 0
-399.145 -3.1884 0
-397.537 -3.18891 0
-395.928 -3.188 0
-394.318 -3.18631 0
-392.709 -3.18671 0
-391.1 -3.18737 0
-389.488 -3.18482 0
-387.879 -3.18618 0
-386.27 -3.18258 0
-384.659 -3.18426 0
-383.05 -3.18396 0
-381.44 -3.18386 0
-379.829 -3.18249 0
-378.221 -3.1829 0
-376.611 -3.18104 0
-375.002 -3.18408 0
-373.391 -3.18113 0
-371.781 -3.18107 0
-370.172 -3.17834 0
-368.562 -3.17865 0
-366.952 -3.17741 0
-365.343 -3.17777 0
-363.732 -3.17742 0
-362.123 -3.17726 0
-360.511 -3.17516 0
-358.901 -3.17566 0
-357.294 -3.17453 0
-355.684 -3.17425 0
-354.073 -3.17368 0
-352.463 -3.17359 0
-350.851 -3.17308 0
-349.244 -3.17286 0
-347.634 -3.17291 0
-346.023 -3.1725 0
-344.412 -3.17126 0
-342.803 -3.17091 0
-341.193 -3.17074 0
-339.584 -3.16944 0
-337.974 -3.17139 0
-336.365 -3.17108 0
-334.756 -3.17057 0
-333.145 -3.17162 0
-331.536 -3.16951 0
-329.926 -3.16982 0
-328.316 -3.16873 0
-326.706 -3.1684 0
-325.097 -3.16938 0
-323.488 -3.1676 0
-321.879 -3.16877 0
-320.268 -3.16864 0
-318.66 -3.16585 0
-317.049 -3.16632 0
-315.439 -3.16509 0
-313.831 -3.16483 0
-312.221 -3.16559 0
-310.611 -3.16539 0
-309 -3.16515 0
-307.39 -3.16461 0
-305.778 -3.16481 0
-304.169 -3.16433 0
-302.56 -3.16359 0
-300.951 -3.16343 0
-299.34 -3.16391 0
-297.731 -3.16428 0
-296.12 -3.16353 0
-294.509 -3.1629 0
-292.901 -3.16211 0
-291.292 -3.16417 0
-289.682 -3.16338 0
-288.071 -3.16259 0
-286.461 -3.16279 0
-284.851 -3.16315 0
-283.24 -3.1642 0
-281.631 -3.16451 0
-280.021 -3.16219 0
-278.411 -3.16241 0
-276.803 -3.16354 0
-275.193 -3.1631 0
-273.583 -3.16504 0
-271.971 -3.16357 0
-270.364 -3.16271 0
-268.756 -3.1651 0
-267.148 -3.16674 0
-265.539 -3.16711 0
-263.929 -3.16586 0
-262.319 -3.16505 0
-260.709 -3.16516 0
-259.099 -3.16673 0
-257.489 -3.16398 0
-255.878 -3.16509 0
-254.268 -3.16639 0
-252.659 -3.16561 0
-251.048 -3.16459 0
-249.439 -3.16399 0
-247.83 -3.16574 0
-246.221 -3.16535 0
-244.611 -3.16501 0
-243.002 -3.16546 0
-241.394 -3.16662 0
-239.783 -3.16724 0
-238.173 -3.16658 0
-236.564 -3.16683 0
-234.955 -3.16943 0
-233.347 -3.17026 0
-231.735 -3.16908 0
-230.126 -3.16932 0
-228.516 -3.16878 0
-226.907 -3.16879 0
-225.296 -3.16771 0
-223.687 -3.16793 0
-222.076 -3.16772 0
-220.467 -3.16744 0
-218.858 -3.1679 0
-217.249 -3.16678 0
-215.641 -3.1675 0
-214.032 -3.16778 0
-212.422 -3.16813 0
-210.813 -3.16871 0
-209.204 -3.16728 0
-207.593 -3.16718 0
-205.983 -3.16883 0
-204.374 -3.16973 0
-202.764 -3.16913 0
-201.155 -3.16877 0
-199.546 -3.17013 0
-197.936 -3.17027 0
-196.327 -3.17041 0
-194.718 -3.1717 0
-193.108 -3.17118 0
-191.5 -3.17034 0
-189.891 -3.16993 0
-188.28 -3.17112 0
-186.671 -3.17111 0
-185.061 -3.17085 0
-183.451 -3.17167 0
-181.842 -3.17111 0
-180.232 -3.17102 0
-178.623 -3.17041 0
-177.014 -3.16987 0
-175.403 -3.17053 0
-173.795 -3.17148 0
-172.185 -3.17013 0
-170.577 -3.16972 0
-168.967 -3.16982 0
-167.357 -3.1708 0
-165.748 -3.16929 0
-164.139 -3.16893 0
-162.529 -3.16951 0
-160.92 -3.17049 0
-159.311 -3.17044 0
-157.702 -3.17118 0
-156.091 -3.17087 0
-154.482 -3.17074 0
-152.873 -3.17126 0
-151.263 -3.16961 0
-149.655 -3.16805 0
-148.045 -3.16893 0
-146.436 -3.1688 0
-144.827 -3.16863 0
-143.218 -3.16915 0
-141.61 -3.16917 0
-140 -3.16941 0
-138.39 -3.16944 0
-136.781 -3.16865 0
-135.171 -3.16887 0
-133.563 -3.1691 0
-131.953 -3.16969 0
-130.344 -3.16937 0
-128.734 -3.16907 0
-127.125 -3.17024 0
-125.514 -3.16941 0
-123.906 -3.17053 0
-122.297 -3.17034 0
-120.688 -3.17155 0
-119.079 -3.17087 0
-117.469 -3.16976 0
-115.859 -3.17051 0
-114.251 -3.16973 0
-112.641 -3.1701 0
-111.032 -3.17079 0
-109.423 -3.16988 0
-107.813 -3.17016 0
-106.204 -3.1708 0
-104.594 -3.17104 0
-102.984 -3.1715 0
-101.375 -3.17113 0
-99.7674 -3.17111 0
-98.1584 -3.17164 0
-96.5482 -3.17078 0
-94.9404 -3.17137 0
-93.3304 -3.17193 0
-91.721 -3.17175 0
-90.1115 -3.17101 0
-88.5028 -3.17037 0
-86.8925 -3.17089 0
-85.2836 -3.16982 0
-83.6751 -3.17063 0
-82.0656 -3.17048 0
-80.4572 -3.17014 0
-78.8482 -3.16873 0
-77.2396 -3.16955 0
-75.6298 -3.17087 0
-74.0201 -3.17094 0
-72.4109 -3.17021 0
-70.8008 -3.17052 0
-69.1928 -3.17146 0
-67.5834 -3.17142 0
-65.9741 -3.17075 0
-64.3658 -3.17057 0
-62.7564 -3.17032 0
-61.1472 -3.1706 0
-59.5364 -3.1707 0
-57.9279 -3.16935 0
-56.3182 -3.17009 0
-54.7105 -3.17086 0
-53.1005 -3.17076 0
-51.4917 -3.17143 0
-49.8823 -3.17044 0
-48.2738 -3.17041 0
-46.6639 -3.16914 0
-45.0546 -3.16886 0
-43.4462 -3.16752 0
-41.8367 -3.1687 0
-40.2266 -3.16853 0
-38.6174 -3.16932 0
-37.0076 -3.1708 0
-35.3996 -3.17016 0
-33.7906 -3.16964 0
-32.1822 -3.17004 0
-30.5741 -3.16737 0
-28.9657 -3.16919 0
-27.3561 -3.16931 0
-25.7455 -3.16948 0
-24.1364 -3.16944 0
-22.5279 -3.16834 0
-20.918 -3.16661 0
-19.3072 -3.16782 0
-17.6982 -3.16662 0
-16.091 -3.16829 0
-14.4805 -3.16657 0
-12.8732 -3.16603 0
-11.2659 -3.16651 0
-9.65636 -3.16651 0
-8.04826 -3.16688 0
-6.4378 -3.16679 0
-4.82817 -3.16754 0
-3.21876 -3.16668 0
-1.60974 -3.16776 0
0 -3.16768 0
-1094.85 51.3588 0
-1094.52 44.9093 0
-1094.32 38.9265 0
-1094.08 33.2559 0
-1093.84 27.8717 0
-1093.6 22.768 0
-1093.33 17.9582 0
-1092.98 13.4499 0
-1092.55 9.2848 0
-1092.07 5.50343 0
-1091.56 2.11485 0
-1091.02 -0.88713 0
-1090.45 -3.51693 0
-1089.86 -5.79366 0
-1089.25 -7.74164 0
-1088.62 -9.38958 0
-1087.95 -10.7664 0
-1087.26 -11.9013 0
-1086.53 -12.821 0
-1085.77 -13.5504 0
-1084.97 -14.1129 0
-1084.14 -14.5287 0
-1083.27 -14.8151 0
-1082.36 -14.9878 0
-1081.43 -15.0615 0
-1080.45 -15.0476 0
-1079.45 -14.9566 0
-1078.42 -14.7981 0
-1077.36 -14.5797 0
-1076.26 -14.3086 0
-1075.15 -13.9915 0
-1074 -13.6333 0
-1072.83 -13.2391 0
-1071.63 -12.8133 0
-1070.41 -12.3601 0
-1069.16 -11.8837 0
-1067.89 -11.3872 0
-1066.6 -10.874 0
-1065.28 -10.3475 0
-1063.95 -9.80989 0
-1062.59 -9.26486 0
-1061.21 -8.71455 0
-1059.81 -8.16139 0
-1058.39 -7.60789 0
-1056.96 -7.05644 0
-1055.5 -6.50939 0
-1054.03 -5.96829 0
-1052.55 -5.4346 0
-1051.04 -4.91095 0
-1049.52 -4.39859 0
-1047.99 -3.89882 0
-1046.45 -3.41264 0
-1044.89 -2.94166 0
-1043.32 -2.48641 0
-1041.73 -2.04792 0
-1040.14 -1.6274 0
-1038.54 -1.22451 0
-1036.92 -0.841064 0
-1035.3 -0.476803 0
-1033.67 -0.132344 0
-1032.03 0.191813 0
-1030.39 0.495732 0
-1028.74 0.77934 0
-1027.09 1.04332 0
-1025.42 1.28643 0
-1023.76 1.50945 0
-1022.09 1.71231 0
-1020.42 1.89553 0
-1018.74 2.0591 0
-1017.06 2.20348 0
-1015.38 2.32908 0
-1013.7 2.43677 0
-1012.02 2.52628 0
-1010.33 2.59762 0
-1008.65 2.6531 0
-1006.96 2.69177 0
-1005.28 2.71486 0
-1003.6 2.72263 0
-1001.91 2.71589 0
-1000.23 2.69585 0
-998.551 2.66207 0
-996.872 2.61593 0
-995.194 2.55803 0
-993.519 2.48895 0
-991.845 2.40956 0
-990.174 2.32078 0
-988.505 2.22217 0
-986.839 2.1153 0
-985.175 2.00078 0
-983.514 1.8789 0
-981.856 1.75105 0
-980.2 1.61765 0
-978.547 1.47863 0
-976.897 1.33553 0
-975.25 1.18876 0
-973.606 1.03842 0
-971.964 0.885829 0
-970.325 0.730749 0
-968.689 0.574759 0
-967.056 0.417476 0
-965.426 0.259722 0
-963.798 0.102413 0