<?xml version="1.0"?>
<VTKFile type="StructuredGrid"  version="0.1" byte_order="LittleEndian" compressor="vtkZLibDataCompressor">
  <StructuredGrid WholeExtent="0 700 0 30 0 0">
    <Piece Extent="0 700 0 30 0 0">
      <PointData Vectors="Velocity">
        <DataArray type="Float32" Name="Velocity" NumberOfComponents="3" format="ascii">
-1094.43 88.9398 0
-1094.55 81.1532 0
-1094.75 73.5406 0
-1094.98 66.2098 0
-1095.2 59.1931 0
-1095.38 52.4486 0
-1095.55 45.9298 0
-1095.76 39.6806 0
-1095.98 33.7705 0
-1096.2 28.2301 0
-1096.39 23.0625 0
-1096.57 18.2642 0
-1096.72 13.8265 0
-1096.83 9.73928 0
-1096.9 5.98698 0
-1096.92 2.55268 0
-1096.88 -0.583746 0
-1096.79 -3.44135 0
-1096.64 -6.03935 0
-1096.42 -8.39626 0
-1096.15 -10.5304 0
-1095.81 -12.458 0
-1095.43 -14.1931 0
-1094.98 -15.751 0
-1094.49 -17.1434 0
-1093.95 -18.3828 0
-1093.36 -19.4793 0
-1092.73 -20.4423 0
-1092.06 -21.2801 0
-1091.35 -22.0023 0
-1090.6 -22.614 0
-1089.82 -23.1219 0
-1089.01 -23.5331 0
-1088.16 -23.8522 0
-1087.28 -24.0836 0
-1086.37 -24.2343 0
-1085.42 -24.3073 0
-1084.45 -24.3073 0
-1083.45 -24.2373 0
-1082.42 -24.1021 0
-1081.36 -23.907 0
-1080.27 -23.6527 0
-1079.15 -23.345 0
-1078.01 -22.9864 0
-1076.84 -22.5808 0
-1075.64 -22.1326 0
-1074.41 -21.6444 0
-1073.16 -21.1201 0
-1071.88 -20.5625 0
-1070.58 -19.9742 0
-1069.25 -19.359 0
-1067.9 -18.7191 0
-1066.52 -18.0587 0
-1065.12 -17.3798 0
-1063.7 -16.6848 0
-1062.26 -15.9764 0
-1060.8 -15.257 0
-1059.31 -14.5289 0
-1057.81 -13.7942 0
-1056.29 -13.0556 0
-1054.75 -12.3152 0
-1053.19 -11.5745 0
-1051.62 -10.8341 0
-1050.03 -10.0974 0
-1048.43 -9.36585 0
-1046.81 -8.6405 0
-1045.18 -7.92371 0
-1043.53 -7.21515 0
-1041.87 -6.51792 0
-1040.21 -5.83171 0
-1038.53 -5.15871 0
-1036.83 -4.49766 0
-1035.13 -3.85246 0
-1033.42 -3.22266 0
-1031.7 -2.60914 0
-1029.98 -2.01142 0
-1028.24 -1.43168 0
-1026.5 -0.871033 0
-1024.75 -0.328733 0
-1023 0.195355 0
-1021.24 0.699293 0
-1019.48 1.18272 0
-1017.71 1.64602 0
-1015.93 2.08986 0
-1014.16 2.51248 0
-1012.38 2.91437 0
-1010.6 3.29651 0
-1008.81 3.65749 0
-1007.02 3.99644 0
-1005.24 4.31572 0
-1003.45 4.61274 0
-1001.66 4.89084 0
-999.866 5.14677 0
-998.076 5.38254 0
-996.285 5.59875 0
-994.495 5.79374 0
-992.706 5.97008 0
-990.917 6.12742 0
-989.129 6.26494 0
-987.345 6.38315 0
-985.559 6.48419 0
-983.777 6.56557 0
-981.997 6.63056 0
-980.219 6.678 0
-978.443 6.70809 0
-976.67 6.72238 0
-974.899 6.72052 0
-973.132 6.70231 0
-971.368 6.66984 0
-969.606 6.62307 0
-967.849 6.5614 0
-966.094 6.48635 0
-964.344 6.3987 0
-962.596 6.29716 0
-960.853 6.18471 0
-959.113 6.06129 0
-957.377 5.92608 0
-955.644 5.77981 0
-953.915 5.62416 0
-952.19 5.45852 0
-950.47 5.28362 0
-948.752 5.10079 0
-947.039 4.90956 0
-945.331 4.71216 0
-943.625 4.50609 0
-941.925 4.29451 0
-940.227 4.07721 0
-938.533 3.85405 0
-936.843 3.62586 0
-935.157 3.39417 0
-933.475 3.15695 0
-931.795 2.91689 0
-930.12 2.67295 0
-928.449 2.42863 0
-926.78 2.18048 0
-925.116 1.93108 0
-923.456 1.68108 0
-921.798 1.42827 0
-920.143 1.17722 0
-918.492 0.924859 0
-916.843 0.672645 0
-915.197 0.422009 0
-913.554 0.171223 0
-911.915 -0.0775288 0
-910.278 -0.324332 0
-908.643 -0.570357 0
-907.011 -0.814403 0
-905.381 -1.05578 0
-903.754 -1.29484 0
-902.129 -1.52978 0
-900.506 -1.7614 0
-898.885 -1.99016 0
-897.264 -2.21517 0
-895.648 -2.43515 0
-894.033 -2.6517 0
-892.419 -2.86373 0
-890.806 -3.07133 0
-889.195 -3.27553 0
-887.585 -3.4742 0
-885.977 -3.66803 0
-884.371 -3.85607 0
-882.766 -4.03927 0
-881.16 -4.21703 0
-879.557 -4.38935 0
-877.954 -4.55575 0
-876.352 -4.71775 0
-874.75 -4.8733 0
-873.15 -5.0244 0
-871.549 -5.16798 0
-869.951 -5.30696 0
-868.352 -5.4398 0
-866.753 -5.5668 0
-865.154 -5.68761 0
-863.556 -5.80327 0
-861.958 -5.91454 0
-860.359 -6.01871 0
-858.761 -6.11661 0
-857.162 -6.21039 0
-855.564 -6.2975 0
-853.965 -6.37814 0
-852.367 -6.45427 0
-850.768 -6.52451 0
-849.169 -6.58876 0
-847.568 -6.64796 0
-845.967 -6.70179 0
-844.366 -6.75094 0
-842.764 -6.79652 0
-841.162 -6.83574 0
-839.56 -6.86874 0
-837.956 -6.89914 0
-836.352 -6.92395 0
-834.748 -6.94319 0
-833.142 -6.95889 0
-831.537 -6.97055 0
-829.929 -6.97731 0
-828.323 -6.97926 0
-826.713 -6.97808 0
-825.103 -6.97266 0
-823.492 -6.96415 0
-821.881 -6.95124 0
-820.27 -6.93561 0
-818.657 -6.91651 0
-817.042 -6.89293 0
-815.427 -6.86789 0
-813.812 -6.83825 0
-812.194 -6.80722 0
-810.577 -6.77252 0
-808.957 -6.73433 0
-807.337 -6.69484 0
-805.715 -6.65371 0
-804.094 -6.60707 0
-802.472 -6.56051 0
-800.846 -6.51376 0
-799.221 -6.46358 0
-797.596 -6.41256 0
-795.969 -6.35883 0
-794.341 -6.30382 0
-792.712 -6.24868 0
-791.083 -6.18944 0
-789.452 -6.12983 0
-787.82 -6.0714 0
-786.19 -6.01241 0
-784.557 -5.95134 0
-782.924 -5.88908 0
-781.289 -5.82717 0
-779.653 -5.76634 0
-778.015 -5.70241 0
-776.378 -5.64023 0
-774.739 -5.57678 0
-773.101 -5.5135 0
-771.462 -5.44934 0
-769.821 -5.38716 0
-768.179 -5.32257 0
-766.538 -5.25957 0
-764.896 -5.19924 0
-763.252 -5.13461 0
-761.607 -5.07383 0
-759.962 -5.01266 0
-758.316 -4.9542 0
-756.67 -4.89552 0
-755.026 -4.83481 0
-753.379 -4.77881 0
-751.731 -4.72147 0
-750.083 -4.66565 0
-748.436 -4.61141 0
-746.786 -4.55632 0
-745.138 -4.50615 0
-743.489 -4.45365 0
-741.838 -4.40331 0
-740.188 -4.35438 0
-738.536 -4.30739 0
-736.885 -4.26343 0
-735.233 -4.21653 0
-733.581 -4.17411 0
-731.931 -4.13357 0
-730.277 -4.09333 0
-728.627 -4.05455 0
-726.974 -4.0167 0
-725.321 -3.97985 0
-723.669 -3.94503 0
-722.016 -3.91523 0
-720.363 -3.88198 0
-718.709 -3.85221 0
-717.055 -3.82432 0
-715.403 -3.79786 0
-713.749 -3.77346 0
-712.097 -3.7504 0
-710.443 -3.72896 0
-708.789 -3.70793 0
-707.134 -3.68908 0
-705.481 -3.67351 0
-703.827 -3.65885 0
-702.174 -3.64451 0
-700.52 -3.63153 0
-698.867 -3.61926 0
-697.214 -3.60868 0
-695.561 -3.60169 0
-693.908 -3.59763 0
-692.255 -3.59078 0
-690.604 -3.58518 0
-688.95 -3.58318 0
-687.299 -3.5847 0
-685.649 -3.58693 0
-683.994 -3.59002 0
-682.342 -3.59192 0
-680.69 -3.59844 0
-679.039 -3.60283 0
-677.388 -3.61035 0
-675.737 -3.62042 0
-674.087 -3.62775 0
-672.437 -3.63857 0
-670.785 -3.65086 0
-669.135 -3.66181 0
-667.485 -3.67537 0
-665.836 -3.69044 0
-664.187 -3.70685 0
-662.539 -3.72389 0
-660.891 -3.74213 0
-659.243 -3.76053 0
-657.594 -3.77951 0
-655.947 -3.80021 0
-654.3 -3.8207 0
-652.652 -3.8435 0
-651.004 -3.86462 0
-649.358 -3.88849 0
-647.711 -3.9111 0
-646.065 -3.93643 0
-644.421 -3.96114 0
-642.775 -3.98385 0
-641.13 -4.01318 0
-639.484 -4.03904 0
-637.839 -4.06414 0
-636.195 -4.09275 0
-634.551 -4.11919 0
-632.905 -4.14578 0
-631.264 -4.17508 0
-629.62 -4.20309 0
-627.977 -4.23271 0
-626.333 -4.26058 0
-624.691 -4.28957 0
-623.048 -4.31961 0
-621.406 -4.35061 0
-619.764 -4.3783 0
-618.122 -4.4071 0
-616.481 -4.4376 0
-614.839 -4.46555 0
-613.197 -4.49215 0
-611.557 -4.52317 0
-609.915 -4.55199 0
-608.275 -4.58264 0
-606.633 -4.61113 0
-604.996 -4.63877 0
-603.357 -4.66771 0
-601.717 -4.69537 0
-600.078 -4.72496 0
-598.439 -4.75244 0
-596.799 -4.77882 0
-595.161 -4.80742 0
-593.521 -4.83571 0
-591.882 -4.85891 0
-590.245 -4.88594 0
-588.609 -4.91162 0
-586.97 -4.93719 0
-585.33 -4.96117 0
-583.692 -4.98944 0
-582.055 -5.01248 0
-580.417 -5.03547 0
-578.78 -5.05985 0
-577.142 -5.08032 0
-575.503 -5.10571 0
-573.867 -5.12714 0
-572.23 -5.14917 0
-570.596 -5.16796 0
-568.956 -5.18929 0
-567.32 -5.20791 0
-565.684 -5.22733 0
-564.049 -5.2478 0
-562.411 -5.26246 0
-560.773 -5.28174 0
-559.136 -5.30094 0
-557.501 -5.31816 0
-555.865 -5.33282 0
-554.229 -5.35174 0
-552.59 -5.36517 0
-550.953 -5.38059 0
-549.315 -5.39342 0
-547.678 -5.40779 0
-546.04 -5.42233 0
-544.405 -5.4336 0
-542.769 -5.44392 0
-541.133 -5.45569 0
-539.497 -5.46922 0
-537.862 -5.47714 0
-536.223 -5.48756 0
-534.588 -5.49577 0
-532.949 -5.50489 0
-531.312 -5.51396 0
-529.674 -5.52049 0
-528.039 -5.52769 0
-526.404 -5.53451 0
-524.768 -5.54009 0
-523.129 -5.54469 0
-521.492 -5.54794 0
-519.854 -5.55384 0
-518.215 -5.55937 0
-516.58 -5.56445 0
-514.943 -5.56729 0
-513.306 -5.57015 0
-511.669 -5.57331 0
-510.034 -5.57397 0
-508.397 -5.57625 0
-506.759 -5.57694 0
-505.121 -5.57602 0
-503.483 -5.5762 0
-501.844 -5.57754 0
-500.206 -5.5774 0
-498.57 -5.57426 0
-496.934 -5.57387 0
-495.294 -5.57185 0
-493.656 -5.57327 0
-492.018 -5.56801 0
-490.382 -5.56473 0
-488.745 -5.56066 0
-487.103 -5.55569 0
-485.464 -5.55324 0
-483.828 -5.54854 0
-482.188 -5.54401 0
-480.55 -5.54131 0
-478.908 -5.53571 0
-477.272 -5.53058 0
-475.635 -5.52535 0
-473.997 -5.52107 0
-472.357 -5.51574 0
-470.719 -5.50909 0
-469.079 -5.50506 0
-467.439 -5.49664 0
-465.8 -5.48996 0
-464.16 -5.48264 0
-462.523 -5.47148 0
-460.884 -5.46505 0
-459.244 -5.45992 0
-457.607 -5.45071 0
-455.967 -5.44481 0
-454.327 -5.43791 0
-452.684 -5.42985 0
-451.046 -5.42474 0
-449.406 -5.41639 0
-447.765 -5.40915 0
-446.125 -5.40456 0
-444.485 -5.39555 0
-442.845 -5.38839 0
-441.202 -5.37876 0
-439.563 -5.37137 0
-437.924 -5.36456 0
-436.282 -5.35559 0
-434.642 -5.34836 0
-433.001 -5.33854 0
-431.36 -5.33248 0
-429.72 -5.32589 0
-428.08 -5.31866 0
-426.439 -5.30822 0
-424.796 -5.30075 0
-423.155 -5.29371 0
-421.516 -5.28689 0
-419.874 -5.27806 0
-418.233 -5.27103 0
-416.591 -5.2643 0
-414.951 -5.2588 0
-413.31 -5.25161 0
-411.668 -5.24336 0
-410.03 -5.23288 0
-408.387 -5.22671 0
-406.746 -5.21955 0
-405.103 -5.2133 0
-403.46 -5.20869 0
-401.821 -5.20141 0
-400.18 -5.19526 0
-398.539 -5.19137 0
-396.9 -5.18188 0
-395.256 -5.17796 0
-393.612 -5.17204 0
-391.972 -5.16888 0
-390.331 -5.15954 0
-388.69 -5.15365 0
-387.048 -5.14861 0
-385.408 -5.14539 0
-383.764 -5.14154 0
-382.124 -5.13685 0
-380.482 -5.13112 0
-378.841 -5.12233 0
-377.198 -5.11985 0
-375.555 -5.1147 0
-373.915 -5.10997 0
-372.272 -5.10484 0
-370.629 -5.0976 0
-368.986 -5.09743 0
-367.343 -5.09196 0
-365.7 -5.08667 0
-364.061 -5.08605 0
-362.421 -5.08393 0
-360.779 -5.08108 0
-359.137 -5.08123 0
-357.495 -5.07636 0
-355.855 -5.07772 0
-354.214 -5.07585 0
-352.569 -5.07141 0
-350.931 -5.07063 0
-349.289 -5.06275 0
-347.647 -5.0639 0
-346.006 -5.06197 0
-344.363 -5.06012 0
-342.723 -5.05631 0
-341.081 -5.05538 0
-339.439 -5.05698 0
-337.8 -5.05142 0
-336.157 -5.05529 0
-334.515 -5.05359 0
-332.872 -5.05439 0
-331.231 -5.05191 0
-329.593 -5.0522 0
-327.953 -5.04985 0
-326.314 -5.04876 0
-324.67 -5.04595 0
-323.031 -5.04997 0
-321.389 -5.04848 0
-319.749 -5.04719 0
-318.109 -5.04462 0
-316.468 -5.04837 0
-314.829 -5.04886 0
-313.191 -5.05028 0
-311.548 -5.05209 0
-309.904 -5.05119 0
-308.259 -5.05081 0
-306.619 -5.05526 0
-304.977 -5.05027 0
-303.337 -5.05222 0
-301.699 -5.05291 0
-300.058 -5.05388 0
-298.419 -5.05458 0
-296.779 -5.06027 0
-295.138 -5.05767 0
-293.497 -5.06053 0
-291.855 -5.05582 0
-290.215 -5.05906 0
-288.571 -5.05817 0
-286.934 -5.05911 0
-285.297 -5.05988 0
-283.655 -5.06134 0
-282.014 -5.06118 0
-280.374 -5.06068 0
-278.735 -5.06132 0
-277.094 -5.06474 0
-275.453 -5.06434 0
-273.813 -5.06381 0
-272.172 -5.06948 0
-270.531 -5.07173 0
-268.888 -5.07375 0
-267.247 -5.07651 0
-265.609 -5.07837 0
-263.971 -5.07881 0
-262.331 -5.07703 0
-260.691 -5.08069 0
-259.054 -5.07651 0
-257.416 -5.0799 0
-255.772 -5.08413 0
-254.132 -5.08631 0
-252.493 -5.08709 0
-250.852 -5.09104 0
-249.216 -5.09332 0
-247.571 -5.09726 0
-245.928 -5.09633 0
-244.29 -5.09606 0
-242.651 -5.09831 0
-241.013 -5.09915 0
-239.371 -5.10321 0
-237.73 -5.10188 0
-236.093 -5.1049 0
-234.453 -5.10539 0
-232.812 -5.10566 0
-231.172 -5.1071 0
-229.534 -5.11106 0
-227.894 -5.11406 0
-226.254 -5.10757 0
-224.615 -5.1102 0
-222.972 -5.11136 0
-221.333 -5.11366 0
-219.693 -5.1119 0
-218.051 -5.11165 0
-216.41 -5.11469 0
-214.771 -5.1172 0
-213.133 -5.11858 0
-211.492 -5.11763 0
-209.853 -5.11571 0
-208.215 -5.1165 0
-206.576 -5.12012 0
-204.937 -5.11809 0
-203.298 -5.12163 0
-201.658 -5.12114 0
-200.023 -5.11819 0
-198.382 -5.12056 0
-196.744 -5.12041 0
-195.105 -5.12286 0
-193.466 -5.12218 0
-191.825 -5.12378 0
-190.189 -5.12171 0
-188.547 -5.1199 0
-186.91 -5.11763 0
-185.27 -5.11734 0
-183.629 -5.11887 0
-181.988 -5.11912 0
-180.347 -5.1152 0
-178.706 -5.11366 0
-177.069 -5.11516 0
-175.428 -5.11414 0
-173.789 -5.11349 0
-172.149 -5.11521 0
-170.508 -5.11553 0
-168.87 -5.11047 0
-167.228 -5.1107 0
-165.591 -5.10644 0
-163.952 -5.10665 0
-162.311 -5.10514 0
-160.675 -5.1051 0
-159.033 -5.1029 0
-157.395 -5.10559 0
-155.755 -5.10422 0
-154.116 -5.10361 0
-152.478 -5.10316 0
-150.839 -5.09838 0
-149.201 -5.09658 0
-147.56 -5.0919 0
-145.919 -5.0942 0
-144.278 -5.0943 0
-142.637 -5.09425 0
-140.998 -5.0887 0
-139.359 -5.08723 0
-137.72 -5.08546 0
-136.08 -5.08593 0
-134.439 -5.07851 0
-132.799 -5.08205 0
-131.163 -5.0814 0
-129.526 -5.08251 0
-127.884 -5.07801 0
-126.245 -5.07682 0
-124.603 -5.07125 0
-122.962 -5.0705 0
-121.322 -5.07228 0
-119.687 -5.06731 0
-118.049 -5.06626 0
-116.406 -5.06866 0
-114.768 -5.06495 0
-113.13 -5.06449 0
-111.492 -5.06518 0
-109.852 -5.05836 0
-108.214 -5.05982 0
-106.574 -5.0592 0
-104.933 -5.05695 0
-103.294 -5.05771 0
-101.658 -5.05166 0
-100.017 -5.0507 0
-98.3758 -5.04858 0
-96.7362 -5.04923 0
-95.0969 -5.04608 0
-93.4539 -5.03882 0
-91.8126 -5.03807 0
-90.1755 -5.03886 0
-88.5315 -5.03766 0
-86.8946 -5.03704 0
-85.2575 -5.03411 0
-83.6156 -5.03785 0
-81.9763 -5.03751 0
-80.3377 -5.03617 0
-78.6986 -5.03423 0
-77.0596 -5.02929 0
-75.4179 -5.02854 0
-73.7813 -5.0271 0
-72.141 -5.02145 0
-70.5015 -5.02623 0
-68.8627 -5.02701 0
-67.2268 -5.02276 0
-65.5829 -5.01874 0
-63.9461 -5.01626 0
-62.3057 -5.0174 0
-60.6639 -5.01664 0
-59.0254 -5.01505 0
-57.3853 -5.01381 0
-55.7472 -5.00891 0
-54.1053 -5.01102 0
-52.466 -5.01287 0
-50.8305 -5.0088 0
-49.1932 -5.00117 0
-47.5551 -5.00503 0
-45.9115 -5.00086 0
-44.2744 -5.00242 0
-42.6344 -4.99789 0
-40.9966 -4.99573 0
-39.3582 -4.99821 0
-37.7209 -4.99481 0
-36.0763 -4.99165 0
-34.4337 -4.99229 0
-32.793 -4.98969 0
-31.1536 -4.99147 0
-29.5143 -4.99462 0
-27.8774 -4.99049 0
-26.2365 -4.99034 0
-24.5953 -4.98665 0
-22.9583 -4.98561 0
-21.317 -4.9856 0
-19.6786 -4.98181 0
-18.0368 -4.98075 0
-16.3953 -4.98265 0
-14.7573 -4.98067 0
-13.116 -4.98153 0
-11.4769 -4.9825 0
-9.83835 -4.98326 0
-8.19674 -4.98127 0
-6.55952 -4.98014 0
-4.91843 -4.98574 0
-3.28227 -4.98081 0
-1.64133 -4.98228 0
0 -4.98401 0
-1102.22 89.1125 0
-1102.2 81.2755 0
-1102.17 73.6445 0
-1102.11 66.3047 0
-1102.04 59.2808 0
-1102.01 52.5309 0
-1101.97 46.0097 0
-1101.88 39.7594 0
-1101.74 33.8495 0
-1101.59 28.3113 0
-1101.42 23.1495 0
-1101.23 18.3619 0
-1101.03 13.9414 0
-1100.79 9.87762 0
-1100.53 6.15542 0
-1100.24 2.75678 0
-1099.91 -0.339036 0
-1099.55 -3.15277 0
-1099.14 -5.70436 0
-1098.69 -8.01425 0
-1098.19 -10.1012 0
-1097.66 -11.9824 0
-1097.08 -13.6733 0
-1096.47 -15.1877 0
-1095.81 -16.5385 0
-1095.12 -17.7383 0
-1094.4 -18.7969 0
-1093.64 -19.7238 0
-1092.84 -20.5278 0
-1092.02 -21.2167 0
-1091.17 -21.7967 0
-1090.29 -22.274 0
-1089.38 -22.6554 0
-1088.44 -22.9452 0
-1087.47 -23.1487 0
-1086.48 -23.2711 0
-1085.46 -23.3169 0
-1084.42 -23.2892 0
-1083.35 -23.1927 0
-1082.26 -23.0305 0
-1081.14 -22.8081 0
-1079.99 -22.5278 0
-1078.82 -22.1938 0
-1077.63 -21.8093 0
-1076.41 -21.3783 0
-1075.17 -20.9052 0
-1073.91 -20.3921 0
-1072.62 -19.8436 0
-1071.31 -19.2619 0
-1069.98 -18.6501 0
-1068.63 -18.0117 0
-1067.25 -17.3496 0
-1065.86 -16.6675 0
-1064.44 -15.9671 0
-1063.01 -15.2519 0
-1061.55 -14.5234 0
-1060.08 -13.7846 0
-1058.59 -13.0382 0
-1057.08 -12.286 0
-1055.56 -11.5302 0
-1054.02 -10.7727 0
-1052.46 -10.0156 0
-1050.89 -9.26048 0
-1049.31 -8.50913 0
-1047.71 -7.76361 0
-1046.1 -7.025 0
-1044.47 -6.29497 0
-1042.84 -5.57482 0
-1041.19 -4.8655 0
-1039.53 -4.16937 0
-1037.86 -3.48483 0
-1036.19 -2.81542 0
-1034.5 -2.16066 0
-1032.81 -1.52232 0
-1031.11 -0.900624 0
-1029.4 -0.295849 0
-1027.68 0.290878 0
-1025.96 0.857616 0
-1024.23 1.40642 0
-1022.49 1.93568 0
-1020.75 2.44481 0
-1019.01 2.93249 0
-1017.26 3.40021 0
-1015.51 3.84737 0
-1013.75 4.27336 0
-1011.99 4.67802 0
-1010.23 5.06226 0
-1008.47 5.42543 0
-1006.7 5.76687 0
-1004.93 6.08651 0
-1003.16 6.38521 0
-1001.39 6.66331 0
-999.623 6.92004 0
-997.853 7.15581 0
-996.083 7.37194 0
-994.312 7.56636 0
-992.541 7.742 0
-990.772 7.89812 0
-989.004 8.0343 0
-987.236 8.15153 0
-985.47 8.25062 0
-983.705 8.33108 0
-981.943 8.39357 0
-980.182 8.43832 0
-978.422 8.46627 0
-976.666 8.47841 0
-974.911 8.47432 0
-973.158 8.45327 0
-971.409 8.41802 0
-969.661 8.36762 0
-967.917 8.3031 0
-966.176 8.22489 0
-964.438 8.13379 0
-962.703 8.0292 0
-960.971 7.91346 0
-959.243 7.78562 0
-957.517 7.64782 0
-955.795 7.49827 0
-954.076 7.33817 0
-952.36 7.16904 0
-950.648 6.99108 0
-948.939 6.80407 0
-947.233 6.60958 0
-945.531 6.40771 0
-943.833 6.19927 0
-942.137 5.98362 0
-940.446 5.76283 0
-938.757 5.53602 0
-937.072 5.30427 0
-935.39 5.0687 0
-933.711 4.82828 0
-932.036 4.5846 0
-930.363 4.33756 0
-928.693 4.08956 0
-927.027 3.83825 0
-925.365 3.5858 0
-923.705 3.33298 0
-922.048 3.07766 0
-920.394 2.82298 0
-918.742 2.56801 0
-917.094 2.31376 0
-915.447 2.05942 0
-913.803 1.80587 0
-912.162 1.55453 0
-910.523 1.30474 0
-908.886 1.05642 0
-907.252 0.810282 0
-905.62 0.566525 0
-903.989 0.32582 0
-902.361 0.0884012 0
-900.735 -0.145024 0
-899.11 -0.375486 0
-897.487 -0.601325 0
-895.865 -0.824115 0
-894.245 -1.04203 0
-892.628 -1.25536 0
-891.011 -1.46491 0
-889.395 -1.66963 0
-887.781 -1.87035 0
-886.168 -2.06513 0
-884.557 -2.2543 0
-882.946 -2.4386 0
-881.336 -2.6173 0
-879.726 -2.79087 0
-878.118 -2.95749 0
-876.51 -3.12028 0
-874.903 -3.27728 0
-873.297 -3.42826 0
-871.691 -3.57233 0
-870.086 -3.71173 0
-868.481 -3.84453 0
-866.876 -3.97138 0
-865.272 -4.09341 0
-863.669 -4.20898 0
-862.064 -4.31959 0
-860.46 -4.42415 0
-858.857 -4.52271 0
-857.253 -4.61498 0
-855.649 -4.70205 0
-854.044 -4.78384 0
-852.44 -4.8597 0
-850.835 -4.92939 0
-849.231 -4.99368 0
-847.625 -5.0517 0
-846.019 -5.10593 0
-844.413 -5.15433 0
-842.805 -5.19873 0
-841.198 -5.23768 0
-839.591 -5.27101 0
-837.984 -5.29981 0
-836.376 -5.32404 0
-834.765 -5.34297 0
-833.156 -5.35786 0
-831.545 -5.36826 0
-829.934 -5.37579 0
-828.322 -5.37709 0
-826.709 -5.37408 0
-825.096 -5.36876 0
-823.482 -5.35822 0
-821.868 -5.34498 0
-820.252 -5.32865 0
-818.636 -5.30868 0
-817.019 -5.28449 0
-815.4 -5.2577 0
-813.781 -5.22701 0
-812.161 -5.19532 0
-810.54 -5.15889 0
-808.919 -5.12106 0
-807.296 -5.08062 0
-805.673 -5.03669 0
-804.048 -4.9907 0
-802.423 -4.94333 0
-800.797 -4.8954 0
-799.171 -4.84529 0
-797.544 -4.79142 0
-795.914 -4.73818 0
-794.286 -4.68216 0
-792.656 -4.62536 0
-791.025 -4.56693 0
-789.394 -4.50623 0
-787.762 -4.44687 0
-786.129 -4.38756 0
-784.495 -4.32464 0
-782.86 -4.2619 0
-781.226 -4.19881 0
-779.59 -4.13634 0
-777.953 -4.07201 0
-776.315 -4.00887 0
-774.677 -3.94453 0
-773.038 -3.88044 0
-771.398 -3.81782 0
-769.758 -3.75289 0
-768.118 -3.68871 0
-766.476 -3.62518 0
-764.833 -3.56075 0
-763.189 -3.49861 0
-761.547 -3.43714 0
-759.903 -3.37593 0
-758.258 -3.31599 0
-756.614 -3.2565 0
-754.967 -3.19701 0
-753.322 -3.13828 0
-751.676 -3.08213 0
-750.028 -3.02496 0
-748.381 -2.97078 0
-746.733 -2.91626 0
-745.086 -2.86478 0
-743.437 -2.81146 0
-741.788 -2.76042 0
-740.14 -2.71138 0
-738.49 -2.66452 0
-736.839 -2.6187 0
-735.19 -2.57408 0
-733.54 -2.53017 0
-731.891 -2.48919 0
-730.239 -2.44885 0
-728.588 -2.41017 0
-726.937 -2.37172 0
-725.287 -2.33568 0
-723.635 -2.30032 0
-721.983 -2.26836 0
-720.331 -2.23699 0
-718.681 -2.20643 0
-717.03 -2.17869 0
-715.378 -2.15353 0
-713.726 -2.1282 0
-712.074 -2.10453 0
-710.423 -2.08183 0
-708.769 -2.06223 0
-707.117 -2.04408 0
-705.466 -2.0276 0
-703.813 -2.01323 0
-702.16 -1.99899 0
-700.509 -1.98547 0
-698.857 -1.97306 0
-697.205 -1.96439 0
-695.555 -1.95635 0
-693.903 -1.95211 0
-692.252 -1.94539 0
-690.6 -1.94186 0
-688.951 -1.93811 0
-687.299 -1.9385 0
-685.647 -1.94207 0
-683.998 -1.94527 0
-682.347 -1.94896 0
-680.696 -1.95383 0
-679.046 -1.95831 0
-677.396 -1.96597 0
-675.747 -1.97659 0
-674.097 -1.9847 0
-672.449 -1.99625 0
-670.798 -2.00784 0
-669.148 -2.02047 0
-667.501 -2.03397 0
-665.852 -2.04852 0
-664.205 -2.06421 0
-662.556 -2.08164 0
-660.91 -2.10145 0
-659.262 -2.11873 0
-657.614 -2.13916 0
-655.967 -2.15962 0
-654.32 -2.18109 0
-652.674 -2.2028 0
-651.027 -2.22489 0
-649.382 -2.24914 0
-647.736 -2.27255 0
-646.09 -2.29676 0
-644.445 -2.32199 0
-642.8 -2.3468 0
-641.154 -2.3738 0
-639.509 -2.4003 0
-637.866 -2.42652 0
-636.222 -2.45523 0
-634.577 -2.4829 0
-632.935 -2.51044 0
-631.292 -2.53874 0
-629.649 -2.56748 0
-628.005 -2.59648 0
-626.361 -2.6263 0
-624.72 -2.65465 0
-623.078 -2.68388 0
-621.434 -2.71445 0
-619.792 -2.74154 0
-618.151 -2.77265 0
-616.51 -2.80309 0
-614.868 -2.8309 0
-613.228 -2.85929 0
-611.587 -2.89001 0
-609.946 -2.91898 0
-608.304 -2.94927 0
-606.664 -2.97816 0
-605.024 -3.00637 0
-603.385 -3.03445 0
-601.746 -3.06257 0
-600.105 -3.09182 0
-598.467 -3.12033 0
-596.829 -3.14749 0
-595.188 -3.17556 0
-593.548 -3.20228 0
-591.91 -3.22823 0
-590.27 -3.2548 0
-588.632 -3.28044 0
-586.993 -3.3065 0
-585.355 -3.33005 0
-583.716 -3.35894 0
-582.078 -3.38109 0
-580.44 -3.40554 0
-578.803 -3.42958 0
-577.165 -3.45017 0
-575.527 -3.47412 0
-573.888 -3.49594 0
-572.25 -3.51802 0
-570.614 -3.53836 0
-568.978 -3.55856 0
-567.34 -3.57817 0
-565.703 -3.59755 0
-564.065 -3.61643 0
-562.427 -3.63429 0
-560.79 -3.6514 0
-559.154 -3.67105 0
-557.517 -3.688 0
-555.88 -3.70379 0
-554.243 -3.72205 0
-552.605 -3.73614 0
-550.966 -3.74975 0
-549.329 -3.76432 0
-547.692 -3.77829 0
-546.056 -3.79194 0
-544.417 -3.80447 0
-542.782 -3.81483 0
-541.145 -3.82687 0
-539.507 -3.8387 0
-537.871 -3.84872 0
-536.232 -3.85707 0
-534.595 -3.86635 0
-532.958 -3.87609 0
-531.319 -3.88284 0
-529.681 -3.89045 0
-528.044 -3.89769 0
-526.408 -3.90535 0
-524.769 -3.91166 0
-523.132 -3.91465 0
-521.495 -3.91955 0
-519.858 -3.92305 0
-518.22 -3.92899 0
-516.583 -3.93301 0
-514.945 -3.93584 0
-513.308 -3.94042 0
-511.672 -3.94369 0
-510.034 -3.94367 0
-508.396 -3.94596 0
-506.76 -3.94645 0
-505.121 -3.94591 0
-503.483 -3.9453 0
-501.844 -3.94533 0
-500.205 -3.94599 0
-498.568 -3.94406 0
-496.931 -3.94384 0
-495.292 -3.9417 0
-493.655 -3.94098 0
-492.014 -3.93906 0
-490.377 -3.93407 0
-488.737 -3.92907 0
-487.098 -3.92507 0
-485.46 -3.92146 0
-483.823 -3.91823 0
-482.185 -3.91162 0
-480.545 -3.90917 0
-478.905 -3.90369 0
-477.268 -3.89884 0
-475.63 -3.8935 0
-473.991 -3.88813 0
-472.353 -3.8831 0
-470.714 -3.87725 0
-469.076 -3.87161 0
-467.435 -3.86507 0
-465.796 -3.85839 0
-464.155 -3.84956 0
-462.517 -3.8411 0
-460.878 -3.83436 0
-459.237 -3.82832 0
-457.597 -3.82065 0
-455.959 -3.81236 0
-454.318 -3.80422 0
-452.679 -3.79699 0
-451.037 -3.79211 0
-449.398 -3.78261 0
-447.757 -3.77674 0
-446.117 -3.76981 0
-444.479 -3.76254 0
-442.837 -3.75417 0
-441.197 -3.74493 0
-439.556 -3.73839 0
-437.914 -3.73055 0
-436.275 -3.72299 0
-434.634 -3.71368 0
-432.994 -3.70615 0
-431.353 -3.69855 0
-429.711 -3.68966 0
-428.07 -3.68454 0
-426.429 -3.67471 0
-424.79 -3.66608 0
-423.149 -3.65944 0
-421.507 -3.65187 0
-419.865 -3.6458 0
-418.227 -3.63993 0
-416.585 -3.63165 0
-414.943 -3.62415 0
-413.302 -3.61691 0
-411.661 -3.60765 0
-410.021 -3.6004 0
-408.382 -3.5922 0
-406.738 -3.58468 0
-405.1 -3.57655 0
-403.457 -3.57363 0
-401.813 -3.56618 0
-400.175 -3.56265 0
-398.533 -3.55595 0
-396.89 -3.54787 0
-395.248 -3.54393 0
-393.608 -3.53829 0
-391.967 -3.5315 0
-390.324 -3.52745 0
-388.683 -3.51942 0
-387.043 -3.51509 0
-385.402 -3.51113 0
-383.761 -3.50492 0
-382.12 -3.50201 0
-380.477 -3.4948 0
-378.835 -3.48936 0
-377.194 -3.48423 0
-375.551 -3.48088 0
-373.911 -3.47726 0
-372.269 -3.46929 0
-370.628 -3.46497 0
-368.985 -3.46313 0
-367.341 -3.45628 0
-365.7 -3.45451 0
-364.061 -3.45341 0
-362.418 -3.44866 0
-360.777 -3.44859 0
-359.135 -3.44637 0
-357.494 -3.44273 0
-355.851 -3.44399 0
-354.21 -3.44055 0
-352.569 -3.43846 0
-350.925 -3.43233 0
-349.286 -3.42965 0
-347.645 -3.4287 0
-346.004 -3.42728 0
-344.364 -3.42617 0
-342.721 -3.42426 0
-341.081 -3.421 0
-339.439 -3.42137 0
-337.799 -3.42045 0
-336.158 -3.41881 0
-334.517 -3.41864 0
-332.873 -3.41923 0
-331.234 -3.41913 0
-329.593 -3.41639 0
-327.951 -3.41597 0
-326.309 -3.41546 0
-324.67 -3.41426 0
-323.03 -3.41599 0
-321.39 -3.41419 0
-319.748 -3.41399 0
-318.108 -3.41317 0
-316.468 -3.41529 0
-314.83 -3.41787 0
-313.187 -3.4172 0
-311.546 -3.41593 0
-309.903 -3.4155 0
-308.264 -3.41676 0
-306.623 -3.41765 0
-304.98 -3.42008 0
-303.34 -3.42063 0
-301.699 -3.41902 0
-300.058 -3.42139 0
-298.419 -3.42173 0
-296.778 -3.42535 0
-295.138 -3.42415 0
-293.498 -3.42635 0
-291.857 -3.42255 0
-290.215 -3.42494 0
-288.576 -3.42454 0
-286.936 -3.42516 0
-285.295 -3.42673 0
-283.656 -3.43002 0
-282.017 -3.4286 0
-280.375 -3.42899 0
-278.735 -3.42832 0
-277.094 -3.43009 0
-275.455 -3.43212 0
-273.815 -3.42996 0
-272.173 -3.43454 0
-270.531 -3.43677 0
-268.891 -3.43945 0
-267.253 -3.44303 0
-265.611 -3.44426 0
-263.972 -3.44418 0
-262.332 -3.44664 0
-260.692 -3.44592 0
-259.052 -3.44722 0
-257.413 -3.44699 0
-255.773 -3.45094 0
-254.132 -3.45349 0
-252.493 -3.45338 0
-250.853 -3.4577 0
-249.213 -3.45982 0
-247.572 -3.46189 0
-245.934 -3.46485 0
-244.291 -3.46543 0
-242.653 -3.46621 0
-241.012 -3.4669 0
-239.372 -3.46826 0
-237.733 -3.47218 0
-236.093 -3.47197 0
-234.453 -3.47207 0
-232.814 -3.4748 0
-231.175 -3.47399 0
-229.535 -3.47796 0
-227.893 -3.47641 0
-226.254 -3.47784 0
-224.614 -3.47665 0
-222.976 -3.47739 0
-221.333 -3.48081 0
-219.694 -3.47867 0
-218.053 -3.48018 0
-216.415 -3.48468 0
-214.775 -3.48552 0
-213.134 -3.48576 0
-211.494 -3.4832 0
-209.856 -3.48361 0
-208.217 -3.48515 0
-206.577 -3.48576 0
-204.939 -3.48683 0
-203.299 -3.4882 0
-201.662 -3.48942 0
-200.022 -3.4882 0
-198.384 -3.48811 0
-196.744 -3.48879 0
-195.105 -3.49041 0
-193.467 -3.49118 0
-191.826 -3.49069 0
-190.184 -3.48763 0
-188.543 -3.48685 0
-186.905 -3.48651 0
-185.267 -3.48435 0
-183.626 -3.48287 0
-181.986 -3.48529 0
-180.344 -3.48252 0
-178.704 -3.4829 0
-177.064 -3.48104 0
-175.426 -3.48371 0
-173.785 -3.48443 0
-172.148 -3.48106 0
-170.508 -3.47964 0
-168.867 -3.4787 0
-167.229 -3.47746 0
-165.59 -3.47456 0
-163.952 -3.47334 0
-162.312 -3.47635 0
-160.671 -3.47186 0
-159.034 -3.47267 0
-157.395 -3.47197 0
-155.757 -3.47172 0
-154.117 -3.47268 0
-152.477 -3.47205 0
-150.836 -3.46811 0
-149.197 -3.46516 0
-147.559 -3.46129 0
-145.917 -3.46236 0
-144.278 -3.46211 0
-142.636 -3.45937 0
-140.997 -3.45711 0
-139.359 -3.45575 0
-137.72 -3.45443 0
-136.08 -3.45139 0
-134.439 -3.44819 0
-132.803 -3.44822 0
-131.164 -3.44946 0
-129.525 -3.44837 0
-127.883 -3.44395 0
-126.241 -3.4455 0
-124.603 -3.44009 0
-122.963 -3.438 0
-121.323 -3.44083 0
-119.684 -3.43617 0
-118.044 -3.43545 0
-116.404 -3.43495 0
-114.767 -3.43395 0
-113.128 -3.43373 0
-111.488 -3.43066 0
-109.849 -3.42865 0
-108.212 -3.42767 0
-106.572 -3.42626 0
-104.931 -3.42527 0
-103.292 -3.42535 0
-101.652 -3.41934 0
-100.014 -3.41855 0
-98.3744 -3.41877 0
-96.7346 -3.41749 0
-95.0909 -3.41179 0
-93.4524 -3.40721 0
-91.8119 -3.40519 0
-90.1721 -3.40607 0
-88.533 -3.40556 0
-86.8937 -3.4049 0
-85.255 -3.40417 0
-83.6155 -3.40296 0
-81.9753 -3.40353 0
-80.3349 -3.40512 0
-78.6964 -3.39885 0
-77.0577 -3.39827 0
-75.4198 -3.39673 0
-73.7786 -3.39487 0
-72.1384 -3.39143 0
-70.501 -3.39265 0
-68.8619 -3.39388 0
-67.2199 -3.39182 0
-65.5808 -3.38862 0
-63.9426 -3.38673 0
-62.3014 -3.38451 0
-60.6631 -3.38362 0
-59.0236 -3.38249 0
-57.3864 -3.38138 0
-55.7471 -3.38008 0
-54.1071 -3.3781 0
-52.4675 -3.37931 0
-50.8277 -3.37694 0
-49.1897 -3.37125 0
-47.5502 -3.36868 0
-45.9121 -3.37006 0
-44.2744 -3.36767 0
-42.6329 -3.36472 0
-40.9951 -3.36354 0
-39.3529 -3.36524 0
-37.7129 -3.35832 0
-36.0744 -3.35852 0
-34.4339 -3.35828 0
-32.794 -3.35866 0
-31.1544 -3.35908 0
-29.5145 -3.3603 0
-27.8738 -3.35941 0
-26.2347 -3.35746 0
-24.5961 -3.35489 0
-22.9566 -3.35256 0
-21.3147 -3.3527 0
-19.6735 -3.34861 0
-18.0373 -3.34691 0
-16.3971 -3.34864 0
-14.7574 -3.34792 0
-13.1181 -3.34802 0
-11.4774 -3.34799 0
-9.83923 -3.34852 0
-8.19856 -3.34731 0
-6.56028 -3.35004 0
-4.92146 -3.35182 0
-3.27857 -3.34966 0
-1.64089 -3.34866 0
0 -3.34732 0
-1110.36 89.6283 0
-1109.94 81.6151 0
-1109.66 74.009 0
-1109.34 66.6827 0
-1109.02 59.6327 0
-1108.69 52.8547 0
-1108.35 46.359 0
-1107.97 40.1571 0
-1107.52 34.2766 0
-1107.03 28.7511 0
-1106.51 23.5972 0
-1105.97 18.8171 0
-1105.41 14.406 0
-1104.83 10.3539 0
-1104.24 6.64634 0
-1103.63 3.26563 0
-1103.01 0.191076 0
-1102.36 -2.59812 0
-1101.69 -5.12295 0
-1101 -7.40383 0
-1100.29 -9.46109 0
-1099.55 -11.3118 0
-1098.78 -12.9722 0
-1097.99 -14.4569 0
-1097.17 -15.7782 0
-1096.33 -16.9493 0
-1095.46 -17.9801 0
-1094.57 -18.88 0
-1093.65 -19.6574 0
-1092.71 -20.3206 0
-1091.75 -20.8757 0
-1090.77 -21.3285 0
-1089.76 -21.6857 0
-1088.73 -21.9518 0
-1087.68 -22.1318 0
-1086.61 -22.2309 0
-1085.52 -22.2531 0
-1084.41 -22.202 0
-1083.27 -22.0824 0
-1082.11 -21.8976 0
-1080.93 -21.6521 0
-1079.73 -21.3489 0
-1078.51 -20.9925 0
-1077.27 -20.5859 0
-1076.01 -20.133 0
-1074.72 -19.638 0
-1073.42 -19.1037 0
-1072.1 -18.5336 0
-1070.76 -17.931 0
-1069.4 -17.2989 0
-1068.02 -16.6406 0
-1066.62 -15.959 0
-1065.2 -15.258 0
-1063.77 -14.539 0
-1062.32 -13.8056 0
-1060.85 -13.0597 0
-1059.37 -12.3038 0
-1057.87 -11.5408 0
-1056.36 -10.773 0
-1054.83 -10.0025 0
-1053.29 -9.22984 0
-1051.73 -8.4586 0
-1050.16 -7.69011 0
-1048.58 -6.92553 0
-1046.99 -6.16723 0
-1045.39 -5.41701 0
-1043.77 -4.67504 0
-1042.14 -3.94411 0
-1040.51 -3.22488 0
-1038.86 -2.51876 0
-1037.21 -1.82521 0
-1035.54 -1.147 0
-1033.87 -0.483975 0
-1032.19 0.162023 0
-1030.51 0.791097 0
-1028.82 1.40255 0
-1027.12 1.99516 0
-1025.41 2.56856 0
-1023.7 3.1223 0
-1021.98 3.65656 0
-1020.26 4.1705 0
-1018.54 4.66307 0
-1016.81 5.13383 0
-1015.08 5.58525 0
-1013.34 6.01407 0
-1011.6 6.422 0
-1009.86 6.80834 0
-1008.12 7.17307 0
-1006.37 7.51537 0
-1004.63 7.83729 0
-1002.88 8.13677 0
-1001.13 8.41562 0
-999.378 8.67329 0
-997.629 8.90969 0
-995.878 9.12521 0
-994.127 9.31994 0
-992.376 9.49505 0
-990.626 9.64974 0
-988.876 9.78561 0
-987.127 9.90167 0
-985.379 9.99965 0
-983.632 10.0783 0
-981.886 10.1399 0
-980.142 10.1818 0
-978.4 10.2091 0
-976.659 10.219 0