<?xml version="1.0"?>
<VTKFile type="StructuredGrid"  version="0.1" byte_order="LittleEndian" compressor="vtkZLibDataCompressor">
  <StructuredGrid WholeExtent="0 700 0 30 0 0">
    <Piece Extent="0 700 0 30 0 0">
      <PointData Vectors="Velocity">
        <DataArray type="Float32" Name="Velocity" NumberOfComponents="3" format="ascii">
-1087.87 57.2816 0
-1088.08 50.7636 0
-1088.36 44.4309 0
-1088.68 38.4067 0
-1088.96 32.7251 0
-1089.18 27.3045 0
-1089.39 22.0851 0
-1089.66 17.1497 0
-1089.93 12.5856 0
-1090.18 8.4124 0
-1090.4 4.62371 0
-1090.58 1.209 0
-1090.72 -1.84502 0
-1090.81 -4.55656 0
-1090.83 -6.94686 0
-1090.79 -9.04068 0
-1090.67 -10.8618 0
-1090.48 -12.4345 0
-1090.21 -13.7813 0
-1089.87 -14.9237 0
-1089.45 -15.8818 0
-1088.97 -16.6733 0
-1088.41 -17.3159 0
-1087.8 -17.8235 0
-1087.12 -18.2103 0
-1086.39 -18.4884 0
-1085.61 -18.6691 0
-1084.78 -18.7611 0
-1083.9 -18.7738 0
-1082.98 -18.7147 0
-1082.02 -18.5918 0
-1081.02 -18.4096 0
-1079.98 -18.1749 0
-1078.91 -17.893 0
-1077.8 -17.5679 0
-1076.67 -17.2045 0
-1075.5 -16.8059 0
-1074.3 -16.3766 0
-1073.07 -15.9204 0
-1071.81 -15.4399 0
-1070.52 -14.9393 0
-1069.21 -14.4208 0
-1067.87 -13.8879 0
-1066.51 -13.3433 0
-1065.12 -12.7892 0
-1063.7 -12.2289 0
-1062.27 -11.6641 0
-1060.81 -11.0976 0
-1059.33 -10.5316 0
-1057.83 -9.96746 0
-1056.31 -9.40833 0
-1054.77 -8.85442 0
-1053.21 -8.3083 0
-1051.64 -7.77137 0
-1050.05 -7.24526 0
-1048.45 -6.73099 0
-1046.83 -6.23047 0
-1045.2 -5.74312 0
-1043.56 -5.27183 0
-1041.9 -4.8164 0
-1040.24 -4.37739 0
-1038.56 -3.9561 0
-1036.88 -3.55241 0
-1035.19 -3.16728 0
-1033.49 -2.80138 0
-1031.78 -2.4544 0
-1030.07 -2.12662 0
-1028.35 -1.81905 0
-1026.63 -1.53044 0
-1024.91 -1.26254 0
-1023.18 -1.01373 0
-1021.44 -0.784557 0
-1019.71 -0.575124 0
-1017.97 -0.385147 0
-1016.23 -0.213963 0
-1014.49 -0.0619963 0
-1012.75 0.072463 0
-1011.01 0.188395 0
-1009.27 0.286297 0
-1007.53 0.367819 0
-1005.79 0.431899 0
-1004.06 0.480408 0
-1002.32 0.51233 0
-1000.59 0.528939 0
-998.86 0.531029 0
-997.132 0.518562 0
-995.407 0.492645 0
-993.685 0.454095 0
-991.966 0.402961 0
-990.251 0.340279 0
-988.539 0.266483 0
-986.831 0.181955 0
-985.126 0.0874554 0
-983.425 -0.0159942 0
-981.728 -0.128485 0
-980.036 -0.248654 0
-978.347 -0.376494 0
-976.663 -0.51124 0
-974.982 -0.652102 0
-973.306 -0.797824 0
-971.634 -0.949265 0
-969.965 -1.10506 0
-968.301 -1.26488 0
-966.641 -1.42755 0
-964.984 -1.593 0
-963.331 -1.76081 0
-961.683 -1.93044 0
-960.038 -2.1013 0
-958.396 -2.27351 0
-956.759 -2.44486 0
-955.125 -2.61635 0
-953.494 -2.78735 0
-951.866 -2.95783 0
-950.242 -3.12678 0
-948.62 -3.29305 0
-947.002 -3.45812 0
-945.386 -3.62051 0
-943.773 -3.78013 0
-942.163 -3.93694 0
-940.555 -4.09008 0
-938.949 -4.23982 0
-937.344 -4.3855 0
-935.742 -4.52735 0
-934.143 -4.66476 0
-932.545 -4.79764 0
-930.948 -4.92629 0
-929.354 -5.0498 0
-927.76 -5.16896 0
-926.167 -5.28225 0
-924.576 -5.39095 0
-922.986 -5.49543 0
-921.397 -5.59352 0
-919.808 -5.68609 0
-918.221 -5.77382 0
-916.634 -5.85626 0
-915.047 -5.93388 0
-913.46 -6.00481 0
-911.874 -6.07173 0
-910.287 -6.13235 0
-908.701 -6.18823 0
-907.116 -6.23916 0
-905.529 -6.28504 0
-903.943 -6.32529 0
-902.357 -6.36096 0
-900.77 -6.39171 0
-899.183 -6.41835 0
-897.595 -6.43908 0
-896.006 -6.45568 0
-894.418 -6.468 0
-892.828 -6.47556 0
-891.238 -6.48045 0
-889.648 -6.47965 0
-888.056 -6.47592 0
-886.463 -6.4678 0
-884.87 -6.45648 0
-883.275 -6.44056 0
-881.679 -6.42186 0
-880.084 -6.40138 0
-878.487 -6.37643 0
-876.889 -6.34876 0
-875.29 -6.31866 0
-873.691 -6.28591 0
-872.09 -6.25011 0
-870.488 -6.21244 0
-868.885 -6.17289 0
-867.279 -6.13128 0
-865.674 -6.08845 0
-864.067 -6.04308 0
-862.459 -5.99647 0
-860.852 -5.9488 0
-859.242 -5.90042 0
-857.632 -5.84941 0
-856.021 -5.79789 0
-854.408 -5.74639 0
-852.794 -5.69428 0
-851.18 -5.6407 0
-849.564 -5.58664 0
-847.948 -5.53257 0
-846.331 -5.47925 0
-844.713 -5.42489 0
-843.093 -5.37125 0
-841.474 -5.31789 0
-839.853 -5.26435 0
-838.232 -5.2118 0
-836.61 -5.15686 0
-834.986 -5.1056 0
-833.363 -5.05439 0
-831.739 -5.00331 0
-830.115 -4.95438 0
-828.489 -4.90511 0
-826.862 -4.85793 0
-825.235 -4.81067 0
-823.608 -4.76444 0
-821.98 -4.7202 0
-820.352 -4.67589 0
-818.724 -4.63419 0
-817.095 -4.59403 0
-815.466 -4.55345 0
-813.836 -4.51433 0
-812.206 -4.47707 0
-810.576 -4.4427 0
-808.945 -4.40845 0
-807.314 -4.3761 0
-805.682 -4.34588 0
-804.05 -4.31666 0
-802.419 -4.29006 0
-800.788 -4.26235 0
-799.155 -4.23758 0
-797.523 -4.21678 0
-795.892 -4.19426 0
-794.259 -4.17373 0
-792.628 -4.15518 0
-790.996 -4.13767 0
-789.363 -4.12287 0
-787.731 -4.10985 0
-786.098 -4.09732 0
-784.467 -4.08688 0
-782.835 -4.07637 0
-781.203 -4.06764 0
-779.572 -4.06111 0
-777.941 -4.05544 0
-776.31 -4.0514 0
-774.679 -4.04922 0
-773.048 -4.04831 0
-771.418 -4.047 0
-769.787 -4.04812 0
-768.157 -4.0504 0
-766.526 -4.05479 0
-764.896 -4.05769 0
-763.267 -4.06301 0
-761.638 -4.06982 0
-760.009 -4.07603 0
-758.38 -4.08467 0
-756.751 -4.09352 0
-755.122 -4.10389 0
-753.494 -4.1154 0
-751.866 -4.12684 0
-750.24 -4.13956 0
-748.613 -4.15183 0
-746.986 -4.16576 0
-745.361 -4.17985 0
-743.734 -4.19476 0
-742.108 -4.20822 0
-740.482 -4.22467 0
-738.857 -4.24076 0
-737.233 -4.25853 0
-735.607 -4.27457 0
-733.983 -4.29154 0
-732.359 -4.30918 0
-730.736 -4.32627 0
-729.113 -4.34357 0
-727.49 -4.36018 0
-725.867 -4.37921 0
-724.244 -4.39726 0
-722.622 -4.41514 0
-721 -4.43273 0
-719.379 -4.45079 0
-717.759 -4.46967 0
-716.137 -4.48673 0
-714.515 -4.50434 0
-712.895 -4.52129 0
-711.274 -4.53877 0
-709.653 -4.55707 0
-708.032 -4.57406 0
-706.412 -4.59145 0
-704.793 -4.60841 0
-703.173 -4.62497 0
-701.553 -4.64252 0
-699.933 -4.65941 0
-698.315 -4.67368 0
-696.695 -4.68869 0
-695.076 -4.70409 0
-693.458 -4.71738 0
-691.84 -4.73179 0
-690.221 -4.74636 0
-688.601 -4.75966 0
-686.983 -4.77243 0
-685.365 -4.78532 0
-683.747 -4.79643 0
-682.128 -4.80886 0
-680.51 -4.81975 0
-678.891 -4.8307 0
-677.274 -4.84114 0
-675.656 -4.85245 0
-674.038 -4.86155 0
-672.42 -4.86973 0
-670.802 -4.87712 0
-669.185 -4.88521 0
-667.567 -4.894 0
-665.95 -4.90104 0
-664.333 -4.90799 0
-662.715 -4.91402 0
-661.097 -4.92012 0
-659.481 -4.92542 0
-657.862 -4.92922 0
-656.245 -4.9349 0
-654.626 -4.9387 0
-653.007 -4.94253 0
-651.389 -4.94774 0
-649.772 -4.94992 0
-648.153 -4.95272 0
-646.535 -4.95595 0
-644.919 -4.95686 0
-643.3 -4.95842 0
-641.682 -4.95923 0
-640.063 -4.959 0
-638.446 -4.96013 0
-636.828 -4.95906 0
-635.209 -4.96031 0
-633.592 -4.9571 0
-631.973 -4.95397 0
-630.354 -4.95315 0
-628.735 -4.95027 0
-627.117 -4.95056 0
-625.498 -4.94736 0
-623.88 -4.9457 0
-622.261 -4.94258 0
-620.642 -4.94092 0
-619.021 -4.93824 0
-617.402 -4.93413 0
-615.781 -4.93095 0
-614.162 -4.92813 0
-612.545 -4.92443 0
-610.924 -4.91866 0
-609.304 -4.91475 0
-607.685 -4.90994 0
-606.065 -4.90439 0
-604.445 -4.90013 0
-602.825 -4.89563 0
-601.205 -4.89047 0
-599.584 -4.88578 0
-597.963 -4.88035 0
-596.344 -4.87512 0
-594.724 -4.87001 0
-593.102 -4.86436 0
-591.482 -4.86 0
-589.862 -4.85408 0
-588.241 -4.84891 0
-586.619 -4.8434 0
-584.997 -4.83708 0
-583.376 -4.83241 0
-581.756 -4.82715 0
-580.135 -4.82401 0
-578.513 -4.81751 0
-576.891 -4.81216 0
-575.271 -4.80631 0
-573.648 -4.80232 0
-572.028 -4.79787 0
-570.407 -4.79331 0
-568.786 -4.78837 0
-567.164 -4.78255 0
-565.541 -4.77976 0
-563.921 -4.77635 0
-562.299 -4.77439 0
-560.678 -4.76725 0
-559.056 -4.76277 0
-557.435 -4.75732 0
-555.813 -4.75534 0
-554.19 -4.75247 0
-552.569 -4.74863 0
-550.946 -4.74454 0
-549.324 -4.74342 0
-547.703 -4.74145 0
-546.082 -4.73653 0
-544.459 -4.73436 0
-542.837 -4.73146 0
-541.215 -4.72928 0
-539.592 -4.72415 0
-537.973 -4.72371 0
-536.352 -4.72151 0
-534.727 -4.71645 0
-533.105 -4.71469 0
-531.482 -4.71184 0
-529.859 -4.71114 0
-528.238 -4.70975 0
-526.618 -4.70839 0
-524.996 -4.70992 0
-523.374 -4.70884 0
-521.752 -4.70723 0
-520.13 -4.70718 0
-518.508 -4.70512 0
-516.886 -4.70458 0
-515.264 -4.70317 0
-513.643 -4.70302 0
-512.019 -4.70274 0
-510.397 -4.70345 0
-508.778 -4.70334 0
-507.157 -4.70398 0
-505.533 -4.70282 0
-503.911 -4.70395 0
-502.289 -4.70425 0
-500.668 -4.7048 0
-499.046 -4.70447 0
-497.425 -4.70657 0
-495.802 -4.70412 0
-494.181 -4.70667 0
-492.56 -4.70987 0
-490.939 -4.70804 0
-489.318 -4.70634 0
-487.696 -4.71041 0
-486.075 -4.71248 0
-484.453 -4.71383 0
-482.832 -4.71598 0
-481.21 -4.71955 0
-479.589 -4.71971 0
-477.968 -4.7217 0
-476.346 -4.72409 0
-474.725 -4.72387 0
-473.105 -4.72833 0
-471.482 -4.7275 0
-469.863 -4.73131 0
-468.242 -4.73419 0
-466.62 -4.73533 0
-465.001 -4.73784 0
-463.38 -4.73812 0
-461.76 -4.74014 0
-460.137 -4.74241 0
-458.514 -4.74515 0
-456.893 -4.74974 0
-455.273 -4.75119 0
-453.65 -4.75117 0
-452.029 -4.75491 0
-450.409 -4.75517 0
-448.789 -4.75721 0
-447.166 -4.7559 0
-445.546 -4.76076 0
-443.926 -4.76534 0
-442.305 -4.76563 0
-440.685 -4.76924 0
-439.064 -4.77171 0
-437.446 -4.77324 0
-435.825 -4.77595 0
-434.202 -4.77702 0
-432.581 -4.78007 0
-430.961 -4.78358 0
-429.342 -4.78366 0
-427.721 -4.78632 0
-426.102 -4.78678 0
-424.479 -4.78866 0
-422.859 -4.79089 0
-421.238 -4.79105 0
-419.616 -4.79602 0
-417.997 -4.79562 0
-416.377 -4.79737 0
-414.756 -4.79837 0
-413.137 -4.80137 0
-411.516 -4.80442 0
-409.896 -4.80452 0
-408.275 -4.80881 0
-406.654 -4.81015 0
-405.035 -4.81017 0
-403.416 -4.81076 0
-401.795 -4.8106 0
-400.175 -4.81199 0
-398.555 -4.81306 0
-396.933 -4.81297 0
-395.311 -4.81683 0
-393.693 -4.81642 0
-392.072 -4.81754 0
-390.454 -4.82116 0
-388.833 -4.81868 0
-387.213 -4.82102 0
-385.592 -4.82243 0
-383.973 -4.82297 0
-382.352 -4.8247 0
-380.733 -4.8235 0
-379.114 -4.82375 0
-377.493 -4.82392 0
-375.872 -4.82403 0
-374.251 -4.82203 0
-372.63 -4.82231 0
-371.01 -4.8256 0
-369.391 -4.82321 0
-367.769 -4.82632 0
-366.151 -4.82546 0
-364.529 -4.82425 0
-362.908 -4.82436 0
-361.288 -4.82403 0
-359.668 -4.82373 0
-358.047 -4.82386 0
-356.428 -4.82395 0
-354.808 -4.82084 0
-353.187 -4.82158 0
-351.567 -4.8238 0
-349.948 -4.8224 0
-348.327 -4.82408 0
-346.708 -4.82227 0
-345.086 -4.82305 0
-343.468 -4.82362 0
-341.849 -4.82191 0
-340.226 -4.82342 0
-338.607 -4.821 0
-336.986 -4.81952 0
-335.364 -4.82241 0
-333.745 -4.82099 0
-332.122 -4.81916 0
-330.501 -4.82032 0
-328.882 -4.81855 0
-327.262 -4.81919 0
-325.643 -4.81989 0
-324.022 -4.81915 0
-322.401 -4.8189 0
-320.782 -4.81713 0
-319.16 -4.81714 0
-317.54 -4.81712 0
-315.92 -4.81642 0
-314.3 -4.81592 0
-312.678 -4.81529 0
-311.057 -4.81519 0
-309.438 -4.81313 0
-307.817 -4.81192 0
-306.197 -4.81354 0
-304.576 -4.8138 0
-302.955 -4.81219 0
-301.334 -4.8106 0
-299.715 -4.80909 0
-298.094 -4.80837 0
-296.473 -4.80648 0
-294.854 -4.80757 0
-293.235 -4.80779 0
-291.614 -4.80818 0
-289.991 -4.80466 0
-288.371 -4.80721 0
-286.751 -4.80621 0
-285.131 -4.80769 0
-283.513 -4.80812 0
-281.892 -4.80632 0
-280.27 -4.80592 0
-278.65 -4.80498 0
-277.029 -4.8019 0
-275.408 -4.80193 0
-273.789 -4.80299 0
-272.169 -4.80213 0
-270.549 -4.80248 0
-268.929 -4.80234 0
-267.311 -4.80073 0
-265.691 -4.79923 0
-264.069 -4.79851 0
-262.445 -4.79876 0
-260.823 -4.79954 0
-259.203 -4.79779 0
-257.585 -4.79761 0
-255.964 -4.79604 0
-254.343 -4.79793 0
-252.724 -4.79796 0
-251.103 -4.79628 0
-249.483 -4.79661 0
-247.863 -4.79873 0
-246.241 -4.79609 0
-244.62 -4.79681 0
-243 -4.79667 0
-241.38 -4.79585 0
-239.759 -4.79368 0
-238.138 -4.79677 0
-236.516 -4.79695 0
-234.898 -4.7977 0
-233.28 -4.79591 0
-231.658 -4.79724 0
-230.04 -4.79814 0
-228.418 -4.79838 0
-226.798 -4.79488 0
-225.176 -4.79411 0
-223.555 -4.79565 0
-221.934 -4.79776 0
-220.314 -4.79565 0
-218.694 -4.79757 0
-217.075 -4.79703 0
-215.455 -4.797 0
-213.834 -4.79595 0
-212.214 -4.79831 0
-210.594 -4.79641 0
-208.973 -4.79623 0
-207.354 -4.79732 0
-205.734 -4.79523 0
-204.114 -4.79363 0
-202.492 -4.79422 0
-200.872 -4.79318 0
-199.251 -4.79404 0
-197.631 -4.79399 0
-196.011 -4.79349 0
-194.393 -4.79112 0
-192.771 -4.79162 0
-191.151 -4.79406 0
-189.53 -4.79497 0
-187.91 -4.79769 0
-186.291 -4.79789 0
-184.67 -4.79364 0
-183.049 -4.79565 0
-181.428 -4.79444 0
-179.808 -4.7978 0
-178.19 -4.7939 0
-176.569 -4.79301 0
-174.947 -4.79404 0
-173.327 -4.79578 0
-171.707 -4.80098 0
-170.09 -4.79872 0
-168.47 -4.79648 0
-166.849 -4.79527 0
-165.229 -4.79564 0
-163.609 -4.79452 0
-161.99 -4.79499 0
-160.37 -4.79545 0
-158.75 -4.79607 0
-157.131 -4.79913 0
-155.511 -4.79889 0
-153.888 -4.79816 0
-152.268 -4.79889 0
-150.648 -4.79505 0
-149.029 -4.79752 0
-147.405 -4.79701 0
-145.787 -4.79777 0
-144.167 -4.79636 0
-142.549 -4.79613 0
-140.928 -4.7957 0
-139.31 -4.79775 0
-137.688 -4.79821 0
-136.071 -4.79881 0
-134.449 -4.80051 0
-132.828 -4.80123 0
-131.212 -4.79751 0
-129.589 -4.79738 0
-127.969 -4.7995 0
-126.349 -4.79985 0
-124.728 -4.79997 0
-123.109 -4.80065 0
-121.49 -4.80362 0
-119.869 -4.80091 0
-118.25 -4.80064 0
-116.629 -4.80259 0
-115.008 -4.80256 0
-113.387 -4.80302 0
-111.767 -4.80381 0
-110.15 -4.80396 0
-108.529 -4.80385 0
-106.909 -4.8022 0
-105.29 -4.80093 0
-103.668 -4.80198 0
-102.046 -4.80343 0
-100.426 -4.80229 0
-98.8062 -4.80477 0
-97.1881 -4.80614 0
-95.5674 -4.80452 0
-93.9471 -4.80612 0
-92.3263 -4.80737 0
-90.7089 -4.80663 0
-89.0898 -4.80568 0
-87.4694 -4.80678 0
-85.8466 -4.80486 0
-84.2268 -4.80618 0
-82.6064 -4.80583 0
-80.9852 -4.8075 0
-79.3679 -4.80595 0
-77.749 -4.80554 0
-76.1292 -4.80565 0
-74.5091 -4.80726 0
-72.8892 -4.80611 0
-71.272 -4.80707 0
-69.6534 -4.80681 0
-68.0329 -4.80507 0
-66.4111 -4.80545 0
-64.7908 -4.8081 0
-63.1699 -4.80693 0
-61.5512 -4.80627 0
-59.9293 -4.80505 0
-58.3104 -4.80499 0
-56.6902 -4.80592 0
-55.0698 -4.80541 0
-53.4507 -4.80517 0
-51.8294 -4.80714 0
-50.2117 -4.80718 0
-48.5929 -4.80552 0
-46.9712 -4.80445 0
-45.3533 -4.80249 0
-43.7334 -4.80169 0
-42.1144 -4.80386 0
-40.496 -4.80425 0
-38.8759 -4.80241 0
-37.2565 -4.80273 0
-35.6362 -4.80373 0
-34.0149 -4.80546 0
-32.3939 -4.80325 0
-30.7761 -4.8038 0
-29.1554 -4.80048 0
-27.5335 -4.80163 0
-25.9141 -4.80151 0
-24.2943 -4.80241 0
-22.6748 -4.80253 0
-21.056 -4.80412 0
-19.435 -4.8013 0
-17.8162 -4.8028 0
-16.1983 -4.80231 0
-14.5785 -4.80301 0
-12.9567 -4.80252 0
-11.339 -4.80195 0
-9.71758 -4.80045 0
-8.0967 -4.80175 0
-6.47875 -4.80227 0
-4.85861 -4.80332 0
-3.2395 -4.80071 0
-1.61944 -4.80207 0
0 -4.80167 0
-1094.39 57.537 0
-1094.45 50.9601 0
-1094.49 44.6014 0
-1094.48 38.5604 0
-1094.47 32.8646 0
-1094.51 27.4358 0
-1094.52 22.2105 0
-1094.46 17.2692 0
-1094.35 12.6994 0
-1094.21 8.52392 0
-1094.05 4.73934 0
-1093.87 1.33654 0
-1093.65 -1.69648 0
-1093.4 -4.37727 0
-1093.12 -6.72801 0
-1092.78 -8.77456 0
-1092.4 -10.543 0
-1091.97 -12.0593 0
-1091.48 -13.3479 0
-1090.94 -14.4321 0
-1090.34 -15.3323 0
-1089.7 -16.0679 0
-1089 -16.6561 0
-1088.25 -17.1126 0
-1087.46 -17.4502 0
-1086.63 -17.6821 0
-1085.75 -17.8189 0
-1084.83 -17.8697 0
-1083.88 -17.8431 0
-1082.89 -17.7469 0
-1081.87 -17.588 0
-1080.81 -17.3719 0
-1079.73 -17.1046 0
-1078.61 -16.7911 0
-1077.46 -16.4354 0
-1076.29 -16.0424 0
-1075.09 -15.6153 0
-1073.86 -15.1583 0
-1072.61 -14.6746 0
-1071.33 -14.1674 0
-1070.02 -13.6411 0
-1068.69 -13.0976 0
-1067.34 -12.5403 0
-1065.97 -11.972 0
-1064.57 -11.3953 0
-1063.15 -10.8127 0
-1061.71 -10.2267 0
-1060.25 -9.64008 0
-1058.77 -9.05428 0
-1057.27 -8.4716 0
-1055.76 -7.89426 0
-1054.23 -7.32381 0
-1052.68 -6.76184 0
-1051.12 -6.20954 0
-1049.54 -5.66924 0
-1047.95 -5.14147 0
-1046.35 -4.62775 0
-1044.73 -4.1289 0
-1043.1 -3.6464 0
-1041.47 -3.18059 0
-1039.82 -2.73192 0
-1038.16 -2.30177 0
-1036.5 -1.88996 0
-1034.82 -1.4974 0
-1033.14 -1.12454 0
-1031.46 -0.771491 0
-1029.76 -0.438607 0
-1028.06 -0.125975 0
-1026.36 0.166375 0
-1024.65 0.438154 0
-1022.94 0.689969 0
-1021.23 0.921837 0
-1019.51 1.13323 0
-1017.8 1.32495 0
-1016.08 1.49741 0
-1014.35 1.65047 0
-1012.63 1.78456 0
-1010.91 1.90025 0
-1009.19 1.99807 0
-1007.46 2.07862 0
-1005.74 2.14172 0
-1004.02 2.18819 0
-1002.3 2.21879 0
-1000.58 2.23354 0
-998.868 2.23323 0
-997.153 2.21853 0
-995.441 2.19039 0
-993.731 2.14866 0
-992.024 2.09456 0
-990.32 2.02873 0
-988.619 1.9517 0
-986.92 1.86364 0
-985.225 1.76557 0
-983.533 1.6586 0
-981.845 1.54267 0
-980.16 1.41847 0
-978.478 1.28696 0
-976.8 1.14877 0
-975.125 1.00432 0
-973.453 0.854427 0
-971.786 0.699508 0
-970.122 0.53995 0
-968.461 0.376667 0
-966.804 0.210398 0
-965.149 0.0413713 0
-963.498 -0.130274 0
-961.851 -0.303698 0
-960.207 -0.477589 0
-958.567 -0.65284 0
-956.929 -0.827548 0
-955.294 -1.00259 0
-953.663 -1.17643 0
-952.034 -1.34991 0
-950.408 -1.5216 0
-948.784 -1.6907 0
-947.163 -1.85804 0
-945.545 -2.02322 0
-943.929 -2.18523 0
-942.316 -2.34455 0
-940.704 -2.49978 0
-939.094 -2.65129 0
-937.487 -2.79887 0
-935.88 -2.94256 0
-934.276 -3.08152 0
-932.673 -3.21588 0
-931.072 -3.34617 0
-929.473 -3.47127 0
-927.874 -3.59128 0
-926.277 -3.70627 0
-924.681 -3.81607 0
-923.086 -3.92066 0
-921.491 -4.01976 0
-919.898 -4.11334 0
-918.305 -4.20208 0
-916.712 -4.28466 0
-915.12 -4.36148 0
-913.528 -4.43389 0
-911.936 -4.50053 0
-910.345 -4.56179 0
-908.754 -4.61804 0
-907.163 -4.66841 0
-905.572 -4.71425 0
-903.98 -4.75422 0
-902.389 -4.79012 0
-900.798 -4.82035 0
-899.206 -4.84593 0
-897.614 -4.86642 0
-896.021 -4.88274 0
-894.427 -4.89457 0
-892.834 -4.90181 0
-891.24 -4.90528 0
-889.645 -4.90459 0
-888.049 -4.89941 0
-886.453 -4.89109 0
-884.856 -4.87816 0
-883.259 -4.86212 0
-881.66 -4.8429 0
-880.061 -4.821 0
-878.461 -4.79546 0
-876.86 -4.76694 0
-875.259 -4.73566 0
-873.657 -4.70168 0
-872.053 -4.66512 0
-870.449 -4.62646 0
-868.844 -4.58569 0
-867.237 -4.54375 0
-865.63 -4.49886 0
-864.022 -4.45318 0
-862.414 -4.40523 0
-860.804 -4.35703 0
-859.193 -4.30719 0
-857.581 -4.25576 0
-855.969 -4.2038 0
-854.356 -4.15081 0
-852.742 -4.09752 0
-851.126 -4.04289 0
-849.511 -3.98851 0
-847.895 -3.93441 0
-846.277 -3.87948 0
-844.659 -3.82437 0
-843.041 -3.76993 0
-841.421 -3.71548 0
-839.801 -3.66162 0
-838.18 -3.60778 0
-836.558 -3.55329 0
-834.936 -3.50073 0
-833.313 -3.44896 0
-831.689 -3.39754 0
-830.065 -3.34711 0
-828.441 -3.29745 0
-826.815 -3.24932 0
-825.189 -3.20162 0
-823.564 -3.15579 0
-821.937 -3.11042 0
-820.31 -3.06671 0
-818.683 -3.02377 0
-817.055 -2.98254 0
-815.427 -2.9431 0
-813.798 -2.90322 0
-812.17 -2.86607 0
-810.541 -2.83084 0
-808.913 -2.79652 0
-807.283 -2.76353 0
-805.653 -2.73256 0
-804.023 -2.70433 0
-802.393 -2.67665 0
-800.762 -2.64944 0
-799.133 -2.62439 0
-797.502 -2.60321 0
-795.871 -2.58123 0
-794.241 -2.56039 0
-792.61 -2.5418 0
-790.979 -2.52514 0
-789.349 -2.5096 0
-787.718 -2.49613 0
-786.088 -2.4828 0
-784.456 -2.47275 0
-782.826 -2.46327 0
-781.197 -2.45466 0
-779.566 -2.44752 0
-777.936 -2.44217 0
-776.306 -2.43878 0
-774.677 -2.43731 0
-773.047 -2.436 0
-771.418 -2.43582 0
-769.789 -2.43603 0
-768.159 -2.43903 0
-766.53 -2.44314 0
-764.901 -2.44599 0
-763.273 -2.45237 0
-761.644 -2.45914 0
-760.016 -2.46587 0
-758.388 -2.47516 0
-756.76 -2.4838 0
-755.133 -2.49409 0
-753.506 -2.50553 0
-751.879 -2.51785 0
-750.252 -2.53069 0
-748.626 -2.54363 0
-747.001 -2.55745 0
-745.374 -2.57172 0
-743.748 -2.58632 0
-742.123 -2.60181 0
-740.498 -2.61748 0
-738.874 -2.63443 0
-737.249 -2.65178 0
-735.625 -2.66863 0
-734 -2.68551 0
-732.376 -2.70311 0
-730.753 -2.72061 0
-729.13 -2.73771 0
-727.507 -2.75623 0
-725.885 -2.77478 0
-724.263 -2.79224 0
-722.64 -2.81163 0
-721.019 -2.82904 0
-719.397 -2.84751 0
-717.776 -2.86535 0
-716.153 -2.8828 0
-714.532 -2.90113 0
-712.911 -2.91892 0
-711.291 -2.9366 0
-709.67 -2.95366 0
-708.05 -2.97268 0
-706.429 -2.98995 0
-704.809 -3.00612 0
-703.189 -3.02321 0
-701.569 -3.04069 0
-699.95 -3.05669 0
-698.33 -3.07169 0
-696.711 -3.08757 0
-695.091 -3.10195 0
-693.472 -3.1169 0
-691.853 -3.13119 0
-690.234 -3.14479 0
-688.615 -3.15869 0
-686.996 -3.17133 0
-685.376 -3.18495 0
-683.758 -3.19624 0
-682.14 -3.2071 0
-680.521 -3.21914 0
-678.903 -3.23044 0
-677.285 -3.24143 0
-675.666 -3.25194 0
-674.047 -3.26191 0
-672.429 -3.27047 0
-670.811 -3.27772 0
-669.193 -3.28435 0
-667.575 -3.29381 0
-665.957 -3.30122 0
-664.34 -3.30694 0
-662.722 -3.31407 0
-661.103 -3.31976 0
-659.485 -3.32501 0
-657.867 -3.3296 0
-656.249 -3.33471 0
-654.63 -3.33729 0
-653.012 -3.342 0
-651.393 -3.3467 0
-649.775 -3.34985 0
-648.155 -3.3517 0
-646.537 -3.35499 0
-644.919 -3.3568 0
-643.302 -3.35806 0
-641.683 -3.35827 0
-640.065 -3.35919 0
-638.446 -3.36017 0
-636.828 -3.35881 0
-635.209 -3.35825 0
-633.589 -3.35708 0
-631.971 -3.35467 0
-630.353 -3.35143 0
-628.735 -3.3519 0
-627.116 -3.34883 0
-625.497 -3.34629 0
-623.876 -3.34495 0
-622.258 -3.34128 0
-620.638 -3.33896 0
-619.019 -3.33579 0
-617.398 -3.33179 0
-615.779 -3.32927 0
-614.159 -3.32638 0
-612.539 -3.32255 0
-610.92 -3.31669 0
-609.3 -3.31264 0
-607.68 -3.30808 0
-606.06 -3.30342 0
-604.44 -3.29791 0
-602.821 -3.29377 0
-601.199 -3.28717 0
-599.579 -3.28309 0
-597.959 -3.27762 0
-596.338 -3.27227 0
-594.718 -3.26788 0
-593.098 -3.26281 0
-591.478 -3.25711 0
-589.857 -3.2513 0
-588.236 -3.24508 0
-586.615 -3.23987 0
-584.993 -3.23452 0
-583.372 -3.22983 0
-581.752 -3.22538 0
-580.13 -3.21915 0
-578.508 -3.21396 0
-576.887 -3.20873 0
-575.265 -3.20348 0
-573.645 -3.19903 0
-572.023 -3.19467 0
-570.401 -3.18962 0
-568.78 -3.18462 0
-567.158 -3.17928 0
-565.537 -3.17582 0
-563.916 -3.17189 0
-562.294 -3.16847 0
-560.673 -3.16358 0
-559.053 -3.1604 0
-557.431 -3.15502 0
-555.81 -3.1515 0
-554.188 -3.14811 0
-552.566 -3.14401 0
-550.945 -3.14152 0
-549.323 -3.13843 0
-547.701 -3.13742 0
-546.078 -3.1329 0
-544.457 -3.12995 0
-542.835 -3.12705 0
-541.212 -3.12491 0
-539.591 -3.12076 0
-537.969 -3.12007 0
-536.347 -3.1163 0
-534.724 -3.11284 0
-533.103 -3.11081 0
-531.481 -3.10843 0
-529.859 -3.10775 0
-528.237 -3.10668 0
-526.616 -3.10502 0
-524.995 -3.10472 0
-523.374 -3.10445 0
-521.752 -3.1046 0
-520.129 -3.10208 0
-518.506 -3.10051 0
-516.885 -3.10037 0
-515.263 -3.09972 0
-513.642 -3.09853 0
-512.02 -3.09926 0
-510.398 -3.10057 0
-508.776 -3.10045 0
-507.154 -3.10053 0
-505.533 -3.09797 0
-503.913 -3.09952 0
-502.291 -3.10066 0
-500.669 -3.10039 0
-499.046 -3.10164 0
-497.425 -3.10126 0
-495.803 -3.10144 0
-494.182 -3.10369 0
-492.56 -3.10485 0
-490.939 -3.10394 0
-489.319 -3.10469 0
-487.697 -3.10697 0
-486.077 -3.10825 0
-484.455 -3.11047 0
-482.834 -3.11287 0
-481.213 -3.11581 0
-479.591 -3.11763 0
-477.97 -3.11809 0
-476.35 -3.11888 0
-474.727 -3.12174 0
-473.106 -3.12413 0
-471.486 -3.1257 0
-469.864 -3.12791 0
-468.244 -3.13015 0
-466.622 -3.13287 0
-465.002 -3.13451 0
-463.384 -3.13528 0
-461.762 -3.13665 0
-460.141 -3.13834 0
-458.518 -3.14212 0
-456.897 -3.14531 0
-455.275 -3.14748 0
-453.654 -3.1484 0
-452.031 -3.15107 0
-450.412 -3.15295 0
-448.792 -3.15478 0
-447.17 -3.15531 0
-445.549 -3.15697 0
-443.928 -3.16153 0
-442.307 -3.16341 0
-440.688 -3.16591 0
-439.066 -3.16955 0
-437.446 -3.17072 0
-435.825 -3.17127 0
-434.205 -3.17492 0
-432.584 -3.17744 0
-430.962 -3.1794 0
-429.343 -3.18107 0
-427.723 -3.18285 0
-426.103 -3.18598 0
-424.482 -3.18689 0
-422.861 -3.18803 0
-421.24 -3.18953 0
-419.619 -3.19264 0
-417.998 -3.19401 0
-416.38 -3.19466 0
-414.759 -3.19657 0
-413.138 -3.19914 0
-411.519 -3.20186 0
-409.898 -3.20246 0
-408.277 -3.20495 0
-406.656 -3.20703 0
-405.037 -3.20785 0
-403.417 -3.20792 0
-401.797 -3.20841 0
-400.175 -3.21053 0
-398.555 -3.20957 0
-396.935 -3.21051 0
-395.314 -3.21413 0
-393.695 -3.21578 0
-392.073 -3.21619 0
-390.454 -3.21678 0
-388.833 -3.21658 0
-387.214 -3.21718 0
-385.594 -3.21866 0
-383.973 -3.22011 0
-382.354 -3.22324 0
-380.733 -3.22115 0
-379.112 -3.22178 0
-377.493 -3.22165 0
-375.873 -3.22069 0
-374.25 -3.21896 0
-372.631 -3.221 0
-371.011 -3.22208 0
-369.389 -3.22201 0
-367.769 -3.22347 0
-366.15 -3.22306 0
-364.529 -3.22026 0
-362.91 -3.22216 0
-361.288 -3.22165 0
-359.668 -3.22337 0
-358.047 -3.22196 0
-356.428 -3.22252 0
-354.808 -3.21925 0
-353.189 -3.21884 0
-351.567 -3.22032 0
-349.946 -3.22103 0
-348.326 -3.2205 0
-346.706 -3.21997 0
-345.087 -3.22152 0
-343.468 -3.22021 0
-341.847 -3.22143 0
-340.225 -3.21828 0
-338.605 -3.21862 0
-336.984 -3.21757 0
-335.363 -3.21914 0
-333.741 -3.21794 0
-332.122 -3.21657 0
-330.502 -3.21606 0
-328.882 -3.21734 0
-327.262 -3.21689 0
-325.642 -3.21684 0
-324.021 -3.21576 0
-322.401 -3.21577 0
-320.78 -3.21379 0
-319.16 -3.21403 0
-317.539 -3.2143 0
-315.917 -3.21364 0
-314.297 -3.21333 0
-312.677 -3.21163 0
-311.057 -3.21227 0
-309.438 -3.21018 0
-307.818 -3.21078 0
-306.198 -3.21179 0
-304.575 -3.21071 0
-302.955 -3.20834 0
-301.334 -3.20865 0
-299.714 -3.20763 0
-298.095 -3.20537 0
-296.475 -3.20522 0
-294.854 -3.20497 0
-293.234 -3.20565 0
-291.612 -3.2039 0
-289.992 -3.20344 0
-288.373 -3.20488 0
-286.751 -3.20451 0
-285.132 -3.20465 0
-283.511 -3.20469 0
-281.89 -3.20533 0
-280.27 -3.20246 0
-278.65 -3.20132 0
-277.029 -3.20012 0
-275.41 -3.19973 0
-273.79 -3.20095 0
-272.17 -3.19971 0
-270.549 -3.20121 0
-268.929 -3.19912 0
-267.309 -3.19829 0
-265.687 -3.1974 0
-264.067 -3.1966 0
-262.445 -3.19536 0
-260.825 -3.19518 0
-259.204 -3.19524 0
-257.583 -3.19585 0
-255.964 -3.19492 0
-254.345 -3.19613 0
-252.724 -3.19402 0
-251.104 -3.19381 0
-249.483 -3.19506 0
-247.862 -3.19605 0
-246.24 -3.19389 0
-244.621 -3.19393 0
-242.999 -3.19393 0
-241.38 -3.19267 0
-239.758 -3.19105 0
-238.14 -3.19165 0
-236.519 -3.19514 0
-234.899 -3.19547 0
-233.279 -3.19483 0
-231.659 -3.19523 0
-230.038 -3.19534 0
-228.417 -3.19419 0
-226.796 -3.19271 0
-225.177 -3.19264 0
-223.557 -3.19187 0
-221.936 -3.19369 0
-220.315 -3.19394 0
-218.695 -3.19554 0
-217.074 -3.19592 0
-215.453 -3.19393 0
-213.832 -3.19463 0
-212.214 -3.19538 0
-210.594 -3.19542 0
-208.973 -3.19358 0
-207.353 -3.19361 0
-205.734 -3.19252 0
-204.113 -3.1913 0
-202.493 -3.19155 0
-200.872 -3.19128 0
-199.254 -3.19266 0
-197.632 -3.19266 0
-196.012 -3.19187 0
-194.391 -3.19099 0
-192.773 -3.19021 0
-191.151 -3.19106 0
-189.531 -3.1923 0
-187.911 -3.19364 0
-186.291 -3.19315 0
-184.669 -3.19368 0
-183.05 -3.19294 0
-181.43 -3.19199 0
-179.81 -3.19461 0
-178.188 -3.19423 0
-176.569 -3.19091 0
-174.949 -3.19261 0
-173.33 -3.19538 0
-171.71 -3.19807 0
-170.087 -3.19614 0
-168.47 -3.19479 0
-166.849 -3.1936 0
-165.229 -3.19355 0
-163.609 -3.19414 0
-161.989 -3.19247 0
-160.37 -3.19431 0
-158.749 -3.19394 0
-157.129 -3.19642 0
-155.509 -3.19457 0
-153.889 -3.19559 0
-152.269 -3.195 0
-150.649 -3.19619 0
-149.029 -3.1944 0
-147.409 -3.19302 0
-145.788 -3.19538 0
-144.168 -3.1946 0
-142.548 -3.19465 0
-140.928 -3.19467 0
-139.309 -3.19517 0
-137.689 -3.19588 0
-136.069 -3.19661 0
-134.449 -3.19668 0
-132.83 -3.19766 0
-131.209 -3.19607 0
-129.591 -3.19625 0
-127.97 -3.19639 0
-126.348 -3.19723 0
-124.731 -3.19661 0
-123.109 -3.20051 0
-121.488 -3.20116 0
-119.87 -3.19853 0
-118.249 -3.19873 0
-116.628 -3.19975 0
-115.009 -3.20148 0
-113.388 -3.20223 0
-111.769 -3.20075 0
-110.149 -3.20182 0
-108.529 -3.20065 0
-106.908 -3.20005 0
-105.288 -3.19933 0
-103.668 -3.19967 0
-102.047 -3.20094 0
-100.427 -3.2029 0
-98.8074 -3.20312 0
-97.1872 -3.20274 0
-95.5678 -3.20395 0
-93.949 -3.20411 0
-92.3301 -3.20386 0
-90.7082 -3.20544 0
-89.0885 -3.20397 0
-87.4684 -3.20336 0
-85.8474 -3.20251 0
-84.2273 -3.20421 0
-82.6061 -3.20295 0
-80.9868 -3.20466 0
-79.3678 -3.205 0
-77.7481 -3.20365 0
-76.129 -3.20451 0
-74.5095 -3.20385 0
-72.8901 -3.20424 0
-71.2697 -3.20551 0
-69.6505 -3.20462 0
-68.0316 -3.204 0
-66.4109 -3.20428 0
-64.79 -3.20408 0
-63.1704 -3.20388 0
-61.55 -3.20274 0
-59.9305 -3.20202 0
-58.31 -3.20356 0
-56.6904 -3.20481 0
-55.0714 -3.20421 0
-53.452 -3.20341 0
-51.8302 -3.20569 0
-50.2107 -3.20555 0
-48.5899 -3.20343 0
-46.9713 -3.20306 0
-45.3528 -3.2018 0
-43.7355 -3.20273 0
-42.1145 -3.20182 0
-40.494 -3.20287 0
-38.8742 -3.20199 0
-37.2551 -3.20172 0
-35.6349 -3.20116 0
-34.0149 -3.20283 0
-32.3937 -3.20168 0
-30.7737 -3.20223 0
-29.1535 -3.19868 0
-27.5343 -3.19693 0
-25.9147 -3.19994 0
-24.296 -3.19927 0
-22.6754 -3.20026 0
-21.0553 -3.20012 0
-19.436 -3.20025 0
-17.8151 -3.2002 0
-16.1961 -3.19998 0
-14.5762 -3.20037 0
-12.9565 -3.19982 0
-11.3365 -3.19915 0
-9.71803 -3.1987 0
-8.09871 -3.20079 0
-6.47903 -3.20011 0
-4.86035 -3.19978 0
-3.23899 -3.19911 0
-1.61988 -3.19983 0
0 -3.19946 0
-1101.27 58.1698 0
-1100.9 51.3861 0
-1100.68 45.0502 0
-1100.41 39.0168 0
-1100.14 33.2664 0
-1099.88 27.7936 0
-1099.59 22.6099 0
-1099.23 17.7249 0
-1098.8 13.1768 0
-1098.31 9.00491 0
-1097.79 5.22142 0
-1097.25 1.8221 0
-1096.68 -1.20351 0
-1096.09 -3.87197 0
-1095.49 -6.20523 0
-1094.86 -8.22871 0
-1094.2 -9.96895 0
-1093.52 -11.4526 0
-1092.81 -12.7055 0
-1092.06 -13.752 0
-1091.28 -14.6137 0
-1090.47 -15.3107 0
-1089.62 -15.8606 0
-1088.75 -16.2799 0
-1087.84 -16.5812 0
-1086.89 -16.778 0
-1085.92 -16.881 0
-1084.92 -16.8991 0
-1083.89 -16.8414 0
-1082.83 -16.7152 0
-1081.74 -16.527 0
-1080.63 -16.2827 0
-1079.49 -15.988 0
-1078.33 -15.6474 0
-1077.14 -15.2655 0
-1075.93 -14.8471 0
-1074.7 -14.3952 0
-1073.44 -13.9133 0
-1072.16 -13.406 0
-1070.86 -12.8756 0
-1069.53 -12.3259 0
-1068.19 -11.7605 0
-1066.82 -11.1816 0
-1065.44 -10.5924 0
-1064.03 -9.99519 0
-1062.61 -9.39292 0
-1061.16 -8.78814 0
-1059.7 -8.18325 0
-1058.22 -7.57962 0
-1056.73 -6.98023 0
-1055.22 -6.38676 0
-1053.69 -5.80113 0
-1052.16 -5.22434 0
-1050.6 -4.65858 0
-1049.04 -4.10478 0
-1047.46 -3.56459 0
-1045.87 -3.03942 0
-1044.27 -2.52952 0
-1042.65 -2.03661 0
-1041.03 -1.561 0
-1039.4 -1.10326 0
-1037.76 -0.664663 0
-1036.11 -0.245462 0
-1034.46 0.154101 0
-1032.8 0.533544 0
-1031.13 0.892452 0
-1029.45 1.23045 0
-1027.77 1.54788 0
-1026.09 1.84445 0
-1024.4 2.11983 0
-1022.71 2.37495 0
-1021.02 2.60946 0
-1019.32 2.82305 0
-1017.62 3.01681 0
-1015.92 3.1906 0
-1014.21 3.34472 0
-1012.51 3.47927 0
-1010.8 3.59548 0
-1009.1 3.69333 0
-1007.39 3.77336 0
-1005.69 3.83594 0
-1003.98 3.88148 0
-1002.28 3.91048 0
-1000.57 3.92401 0
-998.872 3.92205 0
-997.171 3.90532 0
-995.472 3.87536 0
-993.775 3.83181 0
-992.08 3.77494 0
-990.387 3.70658 0
-988.696 3.62657 0
-987.007 3.53576 0
-985.322 3.43522 0
-983.639 3.32496 0
-981.958 3.20587 0
-980.281 3.0792 0
-978.606 2.9445 0
-976.934 2.80285 0
-975.265 2.65519 0
-973.599 2.50206 0
-971.936 2.34385 0
-970.276 2.18113 0