<?xml version="1.0"?>
<VTKFile type="StructuredGrid"  version="0.1" byte_order="LittleEndian" compressor="vtkZLibDataCompressor">
  <StructuredGrid WholeExtent="0 700 0 30 0 0">
    <Piece Extent="0 700 0 30 0 0">
      <PointData Vectors="Velocity">
        <DataArray type="Float32" Name="Velocity" NumberOfComponents="3" format="ascii">
-1092.16 117.237 0
-1092.25 108.069 0
-1092.39 99.0628 0
-1092.57 90.3136 0
-1092.76 81.8589 0
-1092.93 73.6915 0
-1093.1 65.7959 0
-1093.28 58.1889 0
-1093.47 50.9126 0
-1093.66 43.9852 0
-1093.84 37.4137 0
-1094.01 31.1971 0
-1094.15 25.3335 0
-1094.27 19.8163 0
-1094.36 14.6344 0
-1094.41 9.77506 0
-1094.42 5.22203 0
-1094.38 0.966636 0
-1094.29 -3.01444 0
-1094.16 -6.7345 0
-1093.97 -10.211 0
-1093.74 -13.4576 0
-1093.46 -16.4847 0
-1093.14 -19.3092 0
-1092.78 -21.9406 0
-1092.38 -24.3902 0
-1091.94 -26.6657 0
-1091.46 -28.7734 0
-1090.95 -30.7281 0
-1090.41 -32.533 0
-1089.83 -34.1925 0
-1089.23 -35.7116 0
-1088.6 -37.1042 0
-1087.95 -38.368 0
-1087.26 -39.5092 0
-1086.55 -40.5318 0
-1085.81 -41.4403 0
-1085.06 -42.2383 0
-1084.27 -42.9322 0
-1083.45 -43.5184 0
-1082.62 -44.0059 0
-1081.75 -44.4018 0
-1080.86 -44.705 0
-1079.94 -44.9213 0
-1079 -45.0495 0
-1078.03 -45.1002 0
-1077.04 -45.0712 0
-1076.02 -44.9681 0
-1074.97 -44.7992 0
-1073.9 -44.5587 0
-1072.81 -44.2601 0
-1071.69 -43.8965 0
-1070.55 -43.4769 0
-1069.38 -43.0056 0
-1068.18 -42.4832 0
-1066.96 -41.9139 0
-1065.72 -41.2985 0
-1064.46 -40.646 0
-1063.17 -39.9534 0
-1061.86 -39.227 0
-1060.53 -38.4655 0
-1059.19 -37.6747 0
-1057.81 -36.8568 0
-1056.42 -36.0186 0
-1055.01 -35.1524 0
-1053.58 -34.2684 0
-1052.13 -33.3645 0
-1050.67 -32.4452 0
-1049.18 -31.5143 0
-1047.68 -30.5712 0
-1046.16 -29.62 0
-1044.63 -28.6585 0
-1043.08 -27.6965 0
-1041.52 -26.726 0
-1039.94 -25.7512 0
-1038.35 -24.7781 0
-1036.74 -23.8048 0
-1035.13 -22.8374 0
-1033.49 -21.868 0
-1031.85 -20.9068 0
-1030.19 -19.9492 0
-1028.53 -19.0025 0
-1026.85 -18.0637 0
-1025.17 -17.1326 0
-1023.47 -16.2115 0
-1021.76 -15.3005 0
-1020.05 -14.4034 0
-1018.33 -13.5222 0
-1016.6 -12.6514 0
-1014.86 -11.7954 0
-1013.11 -10.9558 0
-1011.37 -10.1347 0
-1009.61 -9.32725 0
-1007.84 -8.53959 0
-1006.07 -7.76757 0
-1004.3 -7.01559 0
-1002.52 -6.27975 0
-1000.74 -5.56394 0
-998.947 -4.86583 0
-997.156 -4.19176 0
-995.361 -3.53275 0
-993.564 -2.89822 0
-991.762 -2.28199 0
-989.956 -1.68772 0
-988.151 -1.11363 0
-986.344 -0.560095 0
-984.533 -0.0277838 0
-982.722 0.484425 0
-980.911 0.977686 0
-979.097 1.44641 0
-977.283 1.89689 0
-975.467 2.32448 0
-973.653 2.73033 0
-971.84 3.11389 0
-970.025 3.47924 0
-968.211 3.82443 0
-966.397 4.14768 0
-964.585 4.4545 0
-962.773 4.73709 0
-960.964 5.00172 0
-959.154 5.2454 0
-957.348 5.47113 0
-955.54 5.67734 0
-953.736 5.86376 0
-951.932 6.03254 0
-950.131 6.18241 0
-948.332 6.31582 0
-946.537 6.42946 0
-944.742 6.52658 0
-942.95 6.60616 0
-941.162 6.67106 0
-939.376 6.71836 0
-937.592 6.75166 0
-935.812 6.76736 0
-934.034 6.76824 0
-932.259 6.75442 0
-930.488 6.72675 0
-928.72 6.68463 0
-926.953 6.62771 0
-925.19 6.55999 0
-923.431 6.47767 0
-921.674 6.38376 0
-919.923 6.2782 0
-918.173 6.15917 0
-916.427 6.0318 0
-914.685 5.89286 0
-912.947 5.74353 0
-911.212 5.58614 0
-909.48 5.4187 0
-907.749 5.24174 0
-906.023 5.05476 0
-904.302 4.86292 0
-902.583 4.66078 0
-900.867 4.4522 0
-899.154 4.23697 0
-897.445 4.01496 0
-895.74 3.78626 0
-894.035 3.55445 0
-892.338 3.31417 0
-890.645 3.07072 0
-888.952 2.82255 0
-887.263 2.57151 0
-885.576 2.31574 0
-883.893 2.05767 0
-882.214 1.79682 0
-880.536 1.53201 0
-878.863 1.26603 0
-877.191 0.996994 0
-875.524 0.729667 0
-873.858 0.457056 0
-872.195 0.185663 0
-870.534 -0.0854136 0
-868.877 -0.359485 0
-867.221 -0.632185 0
-865.569 -0.906158 0
-863.919 -1.17646 0
-862.271 -1.44673 0
-860.627 -1.71547 0
-858.984 -1.98332 0
-857.343 -2.24773 0
-855.703 -2.51146 0
-854.066 -2.77367 0
-852.432 -3.03265 0
-850.8 -3.29053 0
-849.169 -3.54486 0
-847.54 -3.79695 0
-845.913 -4.04356 0
-844.287 -4.28522 0
-842.663 -4.5282 0
-841.041 -4.76264 0
-839.418 -4.99443 0
-837.799 -5.22273 0
-836.181 -5.44619 0
-834.563 -5.66486 0
-832.947 -5.88131 0
-831.331 -6.09054 0
-829.718 -6.29589 0
-828.104 -6.4965 0
-826.493 -6.6918 0
-824.88 -6.88327 0
-823.27 -7.06731 0
-821.661 -7.24719 0
-820.051 -7.42112 0
-818.445 -7.59061 0
-816.837 -7.75273 0
-815.231 -7.90804 0
-813.625 -8.06144 0
-812.019 -8.20755 0
-810.414 -8.34798 0
-808.809 -8.48357 0
-807.203 -8.6108 0
-805.6 -8.73324 0
-803.995 -8.8513 0
-802.391 -8.96172 0
-800.786 -9.06672 0
-799.182 -9.16658 0
-797.577 -9.26021 0
-795.972 -9.35057 0
-794.367 -9.43311 0
-792.763 -9.50949 0
-791.156 -9.58199 0
-789.55 -9.64724 0
-787.945 -9.70961 0
-786.339 -9.76357 0
-784.733 -9.81342 0
-783.128 -9.85757 0
-781.52 -9.89776 0
-779.912 -9.9286 0
-778.303 -9.9565 0
-776.697 -9.97844 0
-775.088 -9.99737 0
-773.48 -10.0109 0
-771.869 -10.0177 0
-770.257 -10.0206 0
-768.648 -10.021 0
-767.036 -10.0119 0
-765.423 -10.0022 0
-763.809 -9.9843 0
-762.196 -9.96709 0
-760.582 -9.94022 0
-758.968 -9.91322 0
-757.353 -9.88026 0
-755.736 -9.8419 0
-754.12 -9.79909 0
-752.501 -9.75271 0
-750.88 -9.70552 0
-749.262 -9.65166 0
-747.639 -9.59625 0
-746.018 -9.53701 0
-744.396 -9.472 0
-742.774 -9.40419 0
-741.15 -9.33669 0
-739.524 -9.26228 0
-737.9 -9.18878 0
-736.273 -9.11057 0
-734.645 -9.02807 0
-733.017 -8.94463 0
-731.389 -8.85814 0
-729.759 -8.77021 0
-728.129 -8.67862 0
-726.498 -8.58614 0
-724.865 -8.49062 0
-723.232 -8.39173 0
-721.598 -8.29322 0
-719.963 -8.19012 0
-718.327 -8.08825 0
-716.691 -7.98244 0
-715.053 -7.87754 0
-713.415 -7.77038 0
-711.775 -7.66194 0
-710.136 -7.55205 0
-708.496 -7.44186 0
-706.855 -7.32859 0
-705.211 -7.2142 0
-703.566 -7.10205 0
-701.923 -6.98795 0
-700.278 -6.87262 0
-698.632 -6.75758 0
-696.986 -6.64222 0
-695.34 -6.52647 0
-693.692 -6.40929 0
-692.043 -6.29121 0
-690.393 -6.17598 0
-688.746 -6.05936 0
-687.097 -5.94336 0
-685.446 -5.82524 0
-683.795 -5.70964 0
-682.142 -5.59321 0
-680.489 -5.47799 0
-678.836 -5.36283 0
-677.183 -5.24831 0
-675.529 -5.13447 0
-673.874 -5.02143 0
-672.218 -4.90978 0
-670.563 -4.7971 0
-668.906 -4.68736 0
-667.25 -4.57683 0
-665.594 -4.46666 0
-663.936 -4.35843 0
-662.277 -4.25064 0
-660.618 -4.14287 0
-658.959 -4.03759 0
-657.3 -3.93517 0
-655.64 -3.83186 0
-653.979 -3.72734 0
-652.319 -3.62925 0
-650.658 -3.5303 0
-648.998 -3.4331 0
-647.336 -3.33715 0
-645.675 -3.24322 0
-644.013 -3.15126 0
-642.352 -3.05961 0
-640.689 -2.96925 0
-639.026 -2.88071 0
-637.364 -2.79294 0
-635.7 -2.70806 0
-634.036 -2.62361 0
-632.373 -2.54163 0
-630.709 -2.46206 0
-629.046 -2.38391 0
-627.381 -2.30502 0
-625.718 -2.23075 0
-624.053 -2.15613 0
-622.388 -2.085 0
-620.724 -2.01461 0
-619.06 -1.94786 0
-617.394 -1.88162 0
-615.729 -1.81551 0
-614.065 -1.75315 0
-612.402 -1.69274 0
-610.737 -1.63201 0
-609.072 -1.57593 0
-607.406 -1.52044 0
-605.741 -1.46531 0
-604.077 -1.4156 0
-602.411 -1.36561 0
-600.747 -1.3167 0
-599.083 -1.27034 0
-597.419 -1.22565 0
-595.754 -1.1821 0
-594.089 -1.13909 0
-592.425 -1.09987 0
-590.761 -1.06137 0
-589.097 -1.0245 0
-587.433 -0.990441 0
-585.769 -0.957737 0
-584.106 -0.926926 0
-582.442 -0.896938 0
-580.779 -0.868063 0
-579.116 -0.841754 0
-577.451 -0.817264 0
-575.79 -0.794686 0
-574.127 -0.773354 0
-572.464 -0.7532 0
-570.801 -0.73345 0
-569.139 -0.715731 0
-567.476 -0.698289 0
-565.814 -0.68498 0
-564.152 -0.672469 0
-562.491 -0.660257 0
-560.83 -0.650536 0
-559.167 -0.641805 0
-557.505 -0.634269 0
-555.845 -0.62788 0
-554.187 -0.622035 0
-552.526 -0.617253 0
-550.865 -0.615335 0
-549.206 -0.612898 0
-547.548 -0.613442 0
-545.888 -0.612174 0
-544.228 -0.615023 0
-542.569 -0.618844 0
-540.909 -0.622417 0
-539.251 -0.626189 0
-537.592 -0.631883 0
-535.935 -0.639536 0
-534.277 -0.646079 0
-532.62 -0.652942 0
-530.962 -0.663391 0
-529.306 -0.671777 0
-527.65 -0.682284 0
-525.993 -0.69499 0
-524.337 -0.707312 0
-522.68 -0.719944 0
-521.024 -0.734489 0
-519.369 -0.747927 0
-517.712 -0.763141 0
-516.058 -0.777238 0
-514.404 -0.791592 0
-512.749 -0.807468 0
-511.095 -0.823617 0
-509.441 -0.84225 0
-507.787 -0.860843 0
-506.132 -0.877427 0
-504.479 -0.895712 0
-502.826 -0.915142 0
-501.17 -0.934244 0
-499.516 -0.954066 0
-497.864 -0.973847 0
-496.212 -0.99571 0
-494.561 -1.01544 0
-492.91 -1.03466 0
-491.256 -1.05623 0
-489.605 -1.0764 0
-487.954 -1.09757 0
-486.304 -1.1187 0
-484.653 -1.14008 0
-483.001 -1.16225 0
-481.351 -1.18348 0
-479.7 -1.20503 0
-478.05 -1.22733 0
-476.4 -1.24926 0
-474.751 -1.27004 0
-473.102 -1.29267 0
-471.451 -1.31434 0
-469.801 -1.33568 0
-468.152 -1.35971 0
-466.503 -1.3806 0
-464.855 -1.40173 0
-463.206 -1.42253 0
-461.556 -1.44399 0
-459.907 -1.4659 0
-458.26 -1.48538 0
-456.613 -1.50409 0
-454.964 -1.52429 0
-453.316 -1.54592 0
-451.669 -1.56679 0
-450.022 -1.58662 0
-448.373 -1.60514 0
-446.728 -1.62262 0
-445.081 -1.64231 0
-443.433 -1.66126 0
-441.787 -1.67942 0
-440.138 -1.69527 0
-438.489 -1.71114 0
-436.841 -1.72911 0
-435.196 -1.74656 0
-433.548 -1.76369 0
-431.902 -1.78 0
-430.257 -1.79336 0
-428.61 -1.81078 0
-426.963 -1.82518 0
-425.317 -1.83938 0
-423.671 -1.85383 0
-422.024 -1.86911 0
-420.377 -1.88142 0
-418.731 -1.89401 0
-417.083 -1.90604 0
-415.437 -1.91704 0
-413.79 -1.93014 0
-412.145 -1.93924 0
-410.5 -1.95201 0
-408.853 -1.95971 0
-407.207 -1.97168 0
-405.56 -1.98079 0
-403.914 -1.98956 0
-402.268 -1.99912 0
-400.622 -2.00766 0
-398.976 -2.01507 0
-397.331 -2.02084 0
-395.681 -2.02764 0
-394.037 -2.03328 0
-392.391 -2.03817 0
-390.746 -2.04481 0
-389.101 -2.04799 0
-387.453 -2.05279 0
-385.807 -2.05782 0
-384.163 -2.06356 0
-382.515 -2.0651 0
-380.87 -2.06733 0
-379.224 -2.0697 0
-377.575 -2.07182 0
-375.929 -2.07357 0
-374.283 -2.07492 0
-372.637 -2.07803 0
-370.991 -2.07651 0
-369.343 -2.07844 0
-367.696 -2.07811 0
-366.05 -2.07624 0
-364.403 -2.07604 0
-362.756 -2.07325 0
-361.111 -2.07305 0
-359.463 -2.07101 0
-357.814 -2.06982 0
-356.169 -2.0684 0
-354.522 -2.06408 0
-352.876 -2.06142 0
-351.228 -2.057 0
-349.58 -2.05438 0
-347.933 -2.04909 0
-346.284 -2.04604 0
-344.638 -2.04018 0
-342.989 -2.03622 0
-341.344 -2.03107 0
-339.696 -2.0258 0
-338.048 -2.01944 0
-336.4 -2.01271 0
-334.753 -2.00965 0
-333.105 -2.00187 0
-331.457 -1.99716 0
-329.807 -1.98882 0
-328.157 -1.98344 0
-326.51 -1.97746 0
-324.864 -1.96941 0
-323.214 -1.9595 0
-321.566 -1.95349 0
-319.92 -1.94468 0
-318.271 -1.93684 0
-316.623 -1.92893 0
-314.976 -1.92047 0
-313.327 -1.91109 0
-311.678 -1.90358 0
-310.029 -1.89487 0
-308.379 -1.88735 0
-306.73 -1.87938 0
-305.082 -1.8692 0
-303.435 -1.85934 0
-301.785 -1.85065 0
-300.138 -1.84122 0
-298.489 -1.83147 0
-296.842 -1.82208 0
-295.193 -1.81468 0
-293.545 -1.80623 0
-291.896 -1.79517 0
-290.245 -1.78474 0
-288.593 -1.77579 0
-286.947 -1.76516 0
-285.296 -1.75709 0
-283.648 -1.74905 0
-282 -1.73896 0
-280.347 -1.73017 0
-278.697 -1.71812 0
-277.049 -1.70887 0
-275.401 -1.70091 0
-273.752 -1.69001 0
-272.103 -1.6786 0
-270.452 -1.66801 0
-268.8 -1.66359 0
-267.151 -1.65378 0
-265.501 -1.64624 0
-263.851 -1.63443 0
-262.201 -1.62636 0
-260.552 -1.61818 0
-258.902 -1.61107 0
-257.253 -1.60341 0
-255.604 -1.5928 0
-253.955 -1.58475 0
-252.304 -1.57421 0
-250.653 -1.56747 0
-249.001 -1.55818 0
-247.35 -1.5522 0
-245.701 -1.54362 0
-244.051 -1.53602 0
-242.403 -1.52969 0
-240.751 -1.52117 0
-239.1 -1.51292 0
-237.45 -1.5098 0
-235.802 -1.50112 0
-234.15 -1.49229 0
-232.501 -1.48712 0
-230.847 -1.47719 0
-229.199 -1.47251 0
-227.547 -1.46853 0
-225.898 -1.45922 0
-224.246 -1.45419 0
-222.596 -1.44715 0
-220.945 -1.44287 0
-219.293 -1.43886 0
-217.644 -1.43301 0
-215.993 -1.43139 0
-214.344 -1.4252 0
-212.695 -1.41947 0
-211.041 -1.41707 0
-209.393 -1.41307 0
-207.741 -1.40646 0
-206.092 -1.40353 0
-204.443 -1.40433 0
-202.793 -1.39787 0
-201.141 -1.39304 0
-199.49 -1.38871 0
-197.841 -1.38611 0
-196.189 -1.38625 0
-194.537 -1.38024 0
-192.889 -1.37735 0
-191.24 -1.37453 0
-189.587 -1.37423 0
-187.937 -1.37154 0
-186.287 -1.36941 0
-184.64 -1.36614 0
-182.988 -1.36521 0
-181.337 -1.36566 0
-179.684 -1.36281 0
-178.035 -1.3626 0
-176.386 -1.36191 0
-174.735 -1.36124 0
-173.084 -1.36512 0
-171.436 -1.36242 0
-169.785 -1.36235 0
-168.133 -1.36332 0
-166.484 -1.36253 0
-164.833 -1.36273 0
-163.185 -1.36203 0
-161.534 -1.3601 0
-159.885 -1.36159 0
-158.233 -1.36186 0
-156.583 -1.36081 0
-154.932 -1.36366 0
-153.282 -1.36705 0
-151.636 -1.36891 0
-149.986 -1.37063 0
-148.335 -1.37106 0
-146.687 -1.37023 0
-145.035 -1.37388 0
-143.384 -1.37596 0
-141.74 -1.37819 0
-140.087 -1.38081 0
-138.44 -1.38524 0
-136.789 -1.3816 0
-135.137 -1.38516 0
-133.487 -1.38791 0
-131.84 -1.38593 0
-130.189 -1.38964 0
-128.539 -1.39412 0
-126.89 -1.39823 0
-125.241 -1.40504 0
-123.593 -1.40671 0
-121.944 -1.41188 0
-120.296 -1.41562 0
-118.646 -1.413 0
-116.999 -1.41877 0
-115.352 -1.42412 0
-113.702 -1.42426 0
-112.05 -1.42453 0
-110.401 -1.42912 0
-108.751 -1.43294 0
-107.105 -1.43638 0
-105.456 -1.44105 0
-103.804 -1.44521 0
-102.159 -1.45042 0
-100.51 -1.45542 0
-98.8636 -1.45742 0
-97.2142 -1.46064 0
-95.5654 -1.46572 0
-93.9159 -1.4678 0
-92.2692 -1.47167 0
-90.6188 -1.47582 0
-88.9684 -1.47832 0
-87.3219 -1.48291 0
-85.6727 -1.49045 0
-84.025 -1.49318 0
-82.3757 -1.49463 0
-80.7274 -1.50096 0
-79.0789 -1.50517 0
-77.4314 -1.5083 0
-75.7824 -1.5119 0
-74.1322 -1.51257 0
-72.4845 -1.51842 0
-70.8369 -1.52067 0
-69.1914 -1.52367 0
-67.5406 -1.52853 0
-65.8931 -1.53238 0
-64.2482 -1.5357 0
-62.6008 -1.54176 0
-60.9567 -1.54711 0
-59.307 -1.54907 0
-57.6565 -1.55027 0
-56.0124 -1.55378 0
-54.3658 -1.55601 0
-52.7196 -1.55988 0
-51.0696 -1.56137 0
-49.4243 -1.562 0
-47.7772 -1.56653 0
-46.1278 -1.56566 0
-44.4796 -1.57097 0
-42.8313 -1.57403 0
-41.182 -1.57422 0
-39.5349 -1.58343 0
-37.8876 -1.58458 0
-36.2399 -1.58728 0
-34.5897 -1.5875 0
-32.9426 -1.58956 0
-31.2958 -1.58863 0
-29.6514 -1.59007 0
-28.0031 -1.59011 0
-26.355 -1.59079 0
-24.7091 -1.59461 0
-23.0643 -1.59341 0
-21.4179 -1.59374 0
-19.7682 -1.59804 0
-18.1217 -1.59651 0
-16.4729 -1.60215 0
-14.8271 -1.60416 0
-13.1776 -1.60272 0
-11.532 -1.59989 0
-9.88525 -1.60449 0
-8.23741 -1.604 0
-6.58962 -1.60466 0
-4.94385 -1.60948 0
-3.29681 -1.6029 0
-1.64738 -1.60368 0
0 -1.6027 0
-1101.33 117.366 0
-1101.29 108.152 0
-1101.23 99.1308 0
-1101.14 90.3768 0
-1101.05 81.9177 0
-1100.96 73.7467 0
-1100.87 65.8502 0
-1100.75 58.2444 0
-1100.61 50.9697 0
-1100.45 44.0461 0
-1100.27 37.4815 0
-1100.09 31.2745 0
-1099.88 25.4264 0
-1099.66 19.9273 0
-1099.42 14.7689 0
-1099.15 9.9383 0
-1098.85 5.41943 0
-1098.53 1.19724 0
-1098.17 -2.74449 0
-1097.78 -6.42786 0
-1097.35 -9.86582 0
-1096.89 -13.0753 0
-1096.4 -16.0664 0
-1095.88 -18.8571 0
-1095.33 -21.4535 0
-1094.75 -23.8703 0
-1094.14 -26.1142 0
-1093.5 -28.1941 0
-1092.83 -30.12 0
-1092.14 -31.8978 0
-1091.43 -33.5314 0
-1090.69 -35.0265 0
-1089.93 -36.3946 0
-1089.15 -37.6346 0
-1088.35 -38.7523 0
-1087.52 -39.7503 0
-1086.67 -40.6365 0
-1085.8 -41.413 0
-1084.91 -42.0807 0
-1084 -42.6452 0
-1083.06 -43.1097 0
-1082.1 -43.4818 0
-1081.12 -43.7608 0
-1080.12 -43.9524 0
-1079.1 -44.0574 0
-1078.05 -44.0841 0
-1076.98 -44.0316 0
-1075.89 -43.9048 0
-1074.77 -43.7126 0
-1073.64 -43.4497 0
-1072.48 -43.1263 0
-1071.3 -42.7391 0
-1070.1 -42.2983 0
-1068.88 -41.803 0
-1067.64 -41.258 0
-1066.38 -40.6659 0
-1065.09 -40.0298 0
-1063.79 -39.3553 0
-1062.47 -38.6419 0
-1061.12 -37.897 0
-1059.76 -37.1157 0
-1058.38 -36.3046 0
-1056.99 -35.4685 0
-1055.57 -34.6084 0
-1054.14 -33.7268 0
-1052.69 -32.8245 0
-1051.23 -31.9023 0
-1049.74 -30.9671 0
-1048.25 -30.0211 0
-1046.74 -29.0612 0
-1045.21 -28.0927 0
-1043.67 -27.1207 0
-1042.12 -26.1389 0
-1040.55 -25.1563 0
-1038.97 -24.1701 0
-1037.38 -23.1831 0
-1035.77 -22.1982 0
-1034.16 -21.2161 0
-1032.53 -20.2356 0
-1030.89 -19.2637 0
-1029.25 -18.2974 0
-1027.59 -17.339 0
-1025.92 -16.3905 0
-1024.24 -15.4498 0
-1022.56 -14.5199 0
-1020.87 -13.601 0
-1019.16 -12.6967 0
-1017.45 -11.8051 0
-1015.74 -10.9283 0
-1014.02 -10.0658 0
-1012.29 -9.22024 0
-1010.55 -8.39324 0
-1008.81 -7.57911 0
-1007.07 -6.78559 0
-1005.31 -6.00881 0
-1003.56 -5.25071 0
-1001.8 -4.51142 0
-1000.03 -3.79103 0
-998.265 -3.08954 0
-996.495 -2.41001 0
-994.719 -1.75148 0
-992.94 -1.1121 0
-991.158 -0.49363 0
-989.375 0.104602 0
-987.589 0.680535 0
-985.802 1.23494 0
-984.012 1.7689 0
-982.222 2.28238 0
-980.433 2.77584 0
-978.64 3.24758 0
-976.846 3.69686 0
-975.053 4.12528 0
-973.261 4.53008 0
-971.466 4.91475 0
-969.672 5.28039 0
-967.879 5.62553 0
-966.084 5.94779 0
-964.292 6.25161 0
-962.501 6.53477 0
-960.711 6.7991 0
-958.92 7.04186 0
-957.132 7.26634 0
-955.345 7.47096 0
-953.559 7.65584 0
-951.775 7.82234 0
-949.991 7.97011 0
-948.211 8.10143 0
-946.432 8.21376 0
-944.654 8.30835 0
-942.88 8.38472 0
-941.107 8.44726 0
-939.336 8.49329 0
-937.569 8.52252 0
-935.804 8.53624 0
-934.041 8.53427 0
-932.28 8.51708 0
-930.522 8.48681 0
-928.768 8.44169 0
-927.015 8.38224 0
-925.266 8.31197 0
-923.518 8.22604 0
-921.775 8.13052 0
-920.034 8.02086 0
-918.296 7.89902 0
-916.562 7.76846 0
-914.829 7.62652 0
-913.099 7.47295 0
-911.374 7.31314 0
-909.651 7.1421 0
-907.931 6.96239 0
-906.213 6.77168 0
-904.499 6.57633 0
-902.788 6.37227 0
-901.079 6.15982 0
-899.373 5.94126 0
-897.671 5.71607 0
-895.969 5.485 0
-894.273 5.24997 0
-892.579 5.0064 0
-890.889 4.76082 0
-889.201 4.50922 0
-887.515 4.25509 0
-885.833 3.99738 0
-884.152 3.73547 0
-882.476 3.47079 0
-880.801 3.20349 0
-879.129 2.93445 0
-877.459 2.66251 0
-875.793 2.39153 0
-874.129 2.11879 0
-872.466 1.84515 0
-870.807 1.56998 0
-869.149 1.29383 0
-867.493 1.01875 0
-865.84 0.743692 0
-864.189 0.470268 0
-862.54 0.197654 0
-860.894 -0.074065 0
-859.249 -0.34187 0
-857.606 -0.609985 0
-855.965 -0.875536 0
-854.326 -1.13939 0
-852.689 -1.40147 0
-851.054 -1.66163 0
-849.42 -1.91615 0
-847.788 -2.1697 0
-846.157 -2.41818 0
-844.528 -2.66292 0
-842.9 -2.9057 0
-841.273 -3.1416 0
-839.648 -3.37452 0
-838.024 -3.60394 0
-836.401 -3.82998 0
-834.779 -4.049 0
-833.158 -4.26576 0
-831.539 -4.47631 0
-829.92 -4.68286 0
-828.302 -4.88441 0
-826.686 -5.0819 0
-825.069 -5.27196 0
-823.452 -5.45809 0
-821.838 -5.6386 0
-820.223 -5.81302 0
-818.609 -5.98246 0
-816.996 -6.14585 0
-815.384 -6.3032 0
-813.773 -6.45528 0
-812.162 -6.60224 0
-810.55 -6.74299 0
-808.94 -6.87837 0
-807.329 -7.00667 0
-805.719 -7.12976 0
-804.109 -7.24747 0
-802.499 -7.35802 0
-800.889 -7.46275 0
-799.278 -7.5621 0
-797.668 -7.65679 0
-796.057 -7.74522 0
-794.447 -7.82777 0
-792.836 -7.9056 0
-791.225 -7.97627 0
-789.613 -8.04168 0
-788.002 -8.10411 0
-786.391 -8.15856 0
-784.78 -8.20918 0
-783.168 -8.25177 0
-781.554 -8.28999 0
-779.941 -8.32181 0
-778.329 -8.34907 0
-776.716 -8.3721 0
-775.103 -8.39014 0
-773.488 -8.40199 0
-771.873 -8.40862 0
-770.259 -8.41209 0
-768.643 -8.40927 0
-767.027 -8.40167 0
-765.41 -8.38961 0
-763.793 -8.37318 0
-762.174 -8.35394 0
-760.555 -8.3291 0
-758.936 -8.29959 0
-757.317 -8.26516 0
-755.697 -8.22606 0
-754.075 -8.18338 0
-752.453 -8.1363 0
-750.832 -8.08733 0
-749.207 -8.03356 0
-747.582 -7.97682 0
-745.957 -7.91612 0
-744.331 -7.8514 0
-742.705 -7.78405 0
-741.078 -7.71308 0
-739.45 -7.63932 0
-737.822 -7.5648 0
-736.193 -7.48618 0
-734.563 -7.40338 0
-732.933 -7.31887 0
-731.301 -7.23238 0
-729.669 -7.14136 0
-728.036 -7.04978 0
-726.403 -6.95586 0
-724.768 -6.85927 0
-723.133 -6.76099 0
-721.497 -6.66046 0
-719.861 -6.55812 0
-718.223 -6.45549 0
-716.584 -6.349 0
-714.945 -6.24275 0
-713.307 -6.13525 0
-711.666 -6.0257 0
-710.025 -5.91549 0
-708.384 -5.80366 0
-706.741 -5.69065 0
-705.098 -5.57467 0
-703.453 -5.46128 0
-701.808 -5.34601 0
-700.164 -5.23184 0
-698.518 -5.11503 0
-696.871 -4.99871 0
-695.223 -4.88195 0
-693.575 -4.76515 0
-691.927 -4.64679 0
-690.279 -4.53021 0
-688.629 -4.41451 0
-686.98 -4.2966 0
-685.33 -4.17896 0
-683.678 -4.06129 0
-682.028 -3.94416 0
-680.375 -3.8287 0
-678.723 -3.71327 0
-677.069 -3.59801 0
-675.416 -3.48386 0
-673.762 -3.37143 0
-672.107 -3.25884 0
-670.451 -3.14587 0
-668.796 -3.03487 0
-667.14 -2.92418 0
-665.484 -2.81484 0
-663.828 -2.70476 0
-662.17 -2.59583 0
-660.512 -2.48851 0
-658.854 -2.3828 0
-657.197 -2.27904 0
-655.538 -2.17618 0
-653.879 -2.07287 0
-652.22 -1.97298 0
-650.561 -1.87439 0
-648.901 -1.77597 0
-647.242 -1.68047 0
-645.582 -1.58602 0
-643.922 -1.49319 0
-642.261 -1.40178 0
-640.6 -1.31056 0
-638.938 -1.22212 0
-637.277 -1.13537 0
-635.615 -1.04804 0
-633.955 -0.965325 0
-632.292 -0.88202 0
-630.63 -0.80253 0
-628.968 -0.723959 0
-627.306 -0.645716 0
-625.643 -0.571436 0
-623.98 -0.4964 0
-622.318 -0.424655 0
-620.656 -0.355046 0
-618.992 -0.287723 0
-617.33 -0.220512 0
-615.666 -0.155374 0
-614.004 -0.093109 0
-612.341 -0.0327827 0
-610.679 0.0277085 0
-609.016 0.0850004 0
-607.353 0.141209 0
-605.689 0.193611 0
-604.026 0.245191 0
-602.363 0.296046 0
-600.701 0.343424 0
-599.039 0.390114 0
-597.375 0.434825 0
-595.712 0.478186 0
-594.049 0.52066 0
-592.387 0.56046 0
-590.724 0.598625 0
-589.062 0.635185 0
-587.4 0.669624 0
-585.737 0.702092 0
-584.075 0.733419 0
-582.413 0.762816 0
-580.751 0.7909 0
-579.089 0.818215 0
-577.428 0.841881 0
-575.767 0.864256 0
-574.105 0.885101 0
-572.443 0.905179 0
-570.782 0.92474 0
-569.121 0.942232 0
-567.461 0.95856 0
-565.8 0.973128 0
-564.14 0.985459 0
-562.479 0.996698 0
-560.818 1.0072 0
-559.159 1.01594 0
-557.5 1.02275 0
-555.84 1.02929 0
-554.18 1.03374 0
-552.522 1.0377 0
-550.863 1.04035 0
-549.204 1.04243 0
-547.546 1.04337 0
-545.888 1.04236 0
-544.23 1.0407 0
-542.572 1.03708 0
-540.915 1.03267 0
-539.257 1.02815 0
-537.599 1.02147 0
-535.942 1.01427 0
-534.285 1.00823 0
-532.629 0.999726 0
-530.973 0.990395 0
-529.316 0.980543 0
-527.66 0.969875 0
-526.005 0.95853 0
-524.348 0.945783 0
-522.693 0.932843 0
-521.038 0.918716 0
-519.383 0.903751 0
-517.728 0.889432 0
-516.073 0.873886 0
-514.418 0.859268 0
-512.765 0.842634 0
-511.111 0.825926 0
-509.459 0.80848 0
-507.805 0.790671 0
-506.15 0.772601 0
-504.496 0.753465 0
-502.842 0.735602 0
-501.19 0.716634 0
-499.536 0.696063 0
-497.885 0.674949 0
-496.233 0.654488 0
-494.581 0.633291 0
-492.929 0.612897 0
-491.277 0.593164 0
-489.626 0.572187 0
-487.974 0.54965 0
-486.324 0.529059 0
-484.674 0.507327 0
-483.023 0.485861 0
-481.371 0.464105 0
-479.722 0.441105 0
-478.072 0.4188 0
-476.423 0.397652 0
-474.773 0.37623 0
-473.122 0.354695 0
-471.473 0.332372 0
-469.824 0.309319 0
-468.174 0.287336 0
-466.525 0.265737 0
-464.875 0.243376 0
-463.226 0.222661 0
-461.579 0.201844 0
-459.93 0.180664 0
-458.281 0.159744 0
-456.633 0.140214 0
-454.986 0.120204 0
-453.337 0.0991188 0
-451.689 0.078562 0
-450.042 0.0590649 0
-448.394 0.0398645 0
-446.746 0.0216531 0
-445.099 0.00226021 0
-443.451 -0.0166324 0
-441.802 -0.0333775 0
-440.155 -0.0510375 0
-438.506 -0.0673988 0
-436.86 -0.0859809 0
-435.214 -0.102538 0
-433.565 -0.119007 0
-431.918 -0.135951 0
-430.271 -0.151126 0
-428.626 -0.167042 0
-426.979 -0.182176 0
-425.33 -0.196256 0
-423.683 -0.21031 0
-422.037 -0.224905 0
-420.39 -0.23798 0
-418.742 -0.249757 0
-417.096 -0.262587 0
-415.449 -0.274601 0
-413.802 -0.286189 0
-412.156 -0.296554 0
-410.51 -0.308196 0
-408.864 -0.31683 0
-407.217 -0.327761 0
-405.57 -0.338477 0
-403.924 -0.346614 0
-402.277 -0.355631 0
-400.631 -0.364612 0
-398.983 -0.372164 0
-397.336 -0.377975 0
-395.69 -0.384231 0
-394.043 -0.391416 0
-392.398 -0.396765 0
-390.751 -0.40138 0
-389.104 -0.40567 0
-387.458 -0.408951 0
-385.812 -0.414683 0
-384.166 -0.418824 0
-382.518 -0.421967 0
-380.871 -0.424739 0
-379.225 -0.426575 0
-377.58 -0.428966 0
-375.931 -0.431298 0
-374.285 -0.43176 0
-372.637 -0.433997 0
-370.991 -0.433538 0
-369.343 -0.43429 0
-367.696 -0.434064 0
-366.049 -0.432098 0
-364.402 -0.431338 0
-362.755 -0.431483 0
-361.107 -0.428734 0
-359.46 -0.427084 0
-357.813 -0.425981 0
-356.165 -0.424531 0
-354.519 -0.421002 0
-352.872 -0.417365 0
-351.224 -0.412182 0
-349.575 -0.409774 0
-347.929 -0.405324 0
-346.28 -0.4004 0
-344.632 -0.397004 0
-342.985 -0.392208 0
-341.337 -0.387361 0
-339.687 -0.380525 0
-338.041 -0.374143 0
-336.394 -0.369225 0
-334.746 -0.364535 0
-333.098 -0.35755 0
-331.448 -0.351138 0
-329.8 -0.343502 0
-328.151 -0.338162 0
-326.503 -0.331405 0
-324.855 -0.323864 0
-323.207 -0.315427 0
-321.56 -0.308607 0
-319.912 -0.30081 0
-318.263 -0.291616 0
-316.616 -0.283196 0
-314.967 -0.275768 0
-313.318 -0.266464 0
-311.67 -0.25812 0
-310.021 -0.249193 0
-308.372 -0.241298 0
-306.723 -0.233333 0
-305.075 -0.224841 0
-303.426 -0.213916 0
-301.777 -0.20519 0
-300.129 -0.195261 0
-298.48 -0.186556 0
-296.831 -0.178122 0
-295.184 -0.169185 0
-293.534 -0.159568 0
-291.884 -0.150184 0
-290.235 -0.137895 0
-288.585 -0.129424 0
-286.935 -0.120249 0
-285.288 -0.110518 0
-283.639 -0.10162 0
-281.989 -0.0926084 0
-280.339 -0.0826126 0
-278.689 -0.0731018 0
-277.04 -0.0639564 0
-275.392 -0.0550945 0
-273.741 -0.043506 0
-272.093 -0.0337905 0
-270.443 -0.0222903 0
-268.793 -0.0155975 0
-267.144 -0.00746054 0
-265.493 0.00106408 0
-263.843 0.0103622 0
-262.193 0.0194922 0
-260.542 0.0274535 0
-258.893 0.0355442 0
-257.243 0.0433157 0
-255.595 0.0513071 0
-253.946 0.0638969 0
-252.296 0.0737215 0
-250.644 0.080539 0
-248.995 0.0890519 0
-247.345 0.0948593 0
-245.695 0.104704 0
-244.044 0.111177 0
-242.393 0.118743 0
-240.744 0.125882 0
-239.093 0.132679 0
-237.445 0.137964 0
-235.794 0.146284 0
-234.146 0.154877 0
-232.494 0.161238 0
-230.843 0.16821 0
-229.191 0.175243 0
-227.54 0.179723 0
-225.89 0.186227 0
-224.239 0.194297 0
-222.589 0.200598 0
-220.94 0.204721 0
-219.29 0.210568 0
-217.64 0.213869 0
-215.99 0.216592 0
-214.34 0.222293 0
-212.69 0.226356 0
-211.041 0.230037 0
-209.39 0.235165 0
-207.738 0.24039 0
-206.089 0.243294 0
-204.438 0.246846 0
-202.788 0.249496 0
-201.139 0.253585 0
-199.486 0.259281 0
-197.836 0.262283 0
-196.185 0.263716 0
-194.535 0.268031 0
-192.883 0.268373 0
-191.235 0.273335 0
-189.585 0.274956 0
-187.936 0.27432 0
-186.285 0.2776 0
-184.635 0.279966 0
-182.985 0.282906 0
-181.336 0.281974 0
-179.685 0.283868 0
-178.036 0.285105 0
-176.385 0.284996 0
-174.734 0.287334 0
-173.084 0.28222 0
-171.434 0.284446 0
-169.782 0.285412 0
-168.134 0.284217 0
-166.485 0.285558 0
-164.834 0.28416 0
-163.185 0.284973 0
-161.534 0.286471 0
-159.882 0.284565 0
-158.234 0.284626 0
-156.584 0.284692 0
-154.934 0.282336 0
-153.285 0.280163 0
-151.636 0.279626 0
-149.986 0.276688 0
-148.337 0.276 0
-146.686 0.275391 0
-145.036 0.271723 0
-143.388 0.269107 0
-141.739 0.26676 0
-140.09 0.266005 0
-138.439 0.263062 0
-136.789 0.26403 0
-135.141 0.260817 0
-133.492 0.259687 0
-131.839 0.259236 0
-130.193 0.255262 0
-128.545 0.251798 0
-126.895 0.248848 0
-125.244 0.245411 0
-123.594 0.239444 0
-121.946 0.234547 0
-120.298 0.230785 0
-118.651 0.230949 0
-117.003 0.224846 0
-115.353 0.223884 0
-113.704 0.222792 0
-112.054 0.220134 0
-110.405 0.215769 0
-108.756 0.210129 0
-107.107 0.207987 0
-105.457 0.203808 0
-103.808 0.200488 0
-102.162 0.194471 0
-100.515 0.190215 0
-98.8656 0.187996 0
-97.219 0.185106 0
-95.5697 0.181902 0
-93.918 0.177381 0
-92.2701 0.173937 0
-90.6213 0.173452 0
-88.9717 0.167398 0
-87.3239 0.160032 0
-85.6766 0.157594 0
-84.0268 0.155149 0
-82.3795 0.151108 0
-80.7311 0.146602 0
-79.0818 0.140741 0
-77.4316 0.136209 0
-75.7866 0.134655 0
-74.1393 0.131393 0
-72.489 0.126228 0
-70.8433 0.12309 0
-69.1947 0.119976 0
-67.5457 0.116677 0
-65.8969 0.111341 0
-64.2508 0.108963 0
-62.604 0.102915 0
-60.9565 0.0993973 0
-59.3082 0.0955294 0
-57.6605 0.0929519 0
-56.0154 0.0914578 0
-54.3674 0.0882157 0
-52.7191 0.0860624 0
-51.0734 0.0844869 0
-49.4239 0.0815741 0
-47.7736 0.0799903 0
-46.1267 0.0769036 0
-44.4813 0.0743097 0
-42.8336 0.0710462 0
-41.1859 0.0663986 0
-39.539 0.0627277 0
-37.8886 0.0607134 0
-36.2407 0.0595896 0
-34.5933 0.0556299 0
-32.9431 0.0565834 0
-31.2975 0.0541934 0
-29.6507 0.0524381 0
-28.0055 0.0563059 0
-26.3587 0.0519453 0
-24.7088 0.0503073 0
-23.0625 0.0503648 0
-21.4152 0.0506024 0
-19.7703 0.0482698 0
-18.1211 0.0456064 0
-16.4714 0.0443537 0
-14.8249 0.0415815 0
-13.1775 0.0425976 0
-11.5308 0.0425626 0
-9.88614 0.0403827 0
-8.23707 0.0413068 0
-6.5917 0.0388595 0
-4.94234 0.038543 0
-3.29428 0.0401112 0
-1.64638 0.0409625 0
0 0.0410824 0
-1110.84 117.814 0
-1110.41 108.44 0
-1110.11 99.445 0
-1109.77 90.7116 0
-1109.41 82.2535 0
-1109.03 74.0763 0
-1108.64 66.1926 0
-1108.22 58.6157 0
-1107.76 51.3631 0
-1107.27 44.4527 0
-1106.76 37.8983 0
-1106.22 31.7017 0
-1105.67 25.8639 0
-1105.11 20.376 0
-1104.54 15.2306 0
-1103.95 10.4165 0
-1103.34 5.91628 0
-1102.73 1.71164 0
-1102.09 -2.21135 0
-1101.44 -5.86938 0
-1100.77 -9.28643 0
-1100.08 -12.4716 0
-1099.38 -15.4389 0
-1098.65 -18.2056 0
-1097.91 -20.781 0
-1097.14 -23.1738 0
-1096.36 -25.3961 0
-1095.56 -27.4545 0
-1094.74 -29.3599 0
-1093.9 -31.1185 0
-1093.05 -32.7315 0
-1092.17 -34.2088 0
-1091.28 -35.5566 0
-1090.37 -36.7766 0
-1089.45 -37.8759 0
-1088.51 -38.857 0
-1087.55 -39.7224 0
-1086.57 -40.478 0
-1085.57 -41.1262 0
-1084.56 -41.6724 0
-1083.52 -42.1168 0
-1082.47 -42.4687 0
-1081.4 -42.7275 0
-1080.31 -42.8997 0
-1079.2 -42.9859 0
-1078.08 -42.9899 0
-1076.93 -42.9175 0
-1075.77 -42.7722 0
-1074.59 -42.5577 0
-1073.39 -42.2748 0
-1072.17 -41.9308 0
-1070.93 -41.5247 0
-1069.68 -41.0656 0
-1068.4 -40.5508 0
-1067.11 -39.9837 0
-1065.8 -39.3763 0
-1064.48 -38.7216 0
-1063.13 -38.027 0
-1061.77 -37.2963 0
-1060.4 -36.5328 0
-1059 -35.7349 0
-1057.59 -34.9072 0
-1056.17 -34.0549 0
-1054.73 -33.1763 0
-1053.28 -32.2792 0
-1051.81 -31.3613 0
-1050.33 -30.4239 0
-1048.83 -29.4756 0
-1047.32 -28.5142 0
-1045.8 -27.5417 0
-1044.27 -26.5592 0
-1042.72 -25.5743 0
-1041.16 -24.5797 0
-1039.59 -23.5851 0
-1038.01 -22.5866 0
-1036.42 -21.5875 0
-1034.81 -20.5921 0
-1033.2 -19.5988 0
-1031.58 -18.61 0
-1029.95 -17.6274 0
-1028.3 -16.6516 0
-1026.65 -15.6848 0
-1024.99 -14.7246 0
-1023.33 -13.7769 0
-1021.65 -12.8395 0
-1019.97 -11.9143 0
-1018.28 -11.0013 0
-1016.58 -10.1033 0
-1014.88 -9.21915 0
-1013.17 -8.35193 0
-1011.46 -7.50025 0
-1009.74 -6.66711 0
-1008.02 -5.84795 0
-1006.29 -5.04885 0
-1004.56 -4.26961 0
-1002.82 -3.50459 0