<?xml version="1.0"?>
<VTKFile type="StructuredGrid"  version="0.1" byte_order="LittleEndian" compressor="vtkZLibDataCompressor">
  <StructuredGrid WholeExtent="0 700 0 30 0 0">
    <Piece Extent="0 700 0 30 0 0">
      <PointData Vectors="Velocity">
        <DataArray type="Float32" Name="Velocity" NumberOfComponents="3" format="ascii">
-1094.22 83.1378 0
-1094.35 75.5244 0
-1094.56 68.0862 0
-1094.79 60.9332 0
-1095.02 54.0981 0
-1095.2 47.5329 0
-1095.38 41.1899 0
-1095.59 35.116 0
-1095.82 29.3847 0
-1096.04 24.0259 0
-1096.24 19.0425 0
-1096.42 14.4298 0
-1096.56 10.1788 0
-1096.67 6.2767 0
-1096.74 2.70948 0
-1096.75 -0.541969 0
-1096.71 -3.49746 0
-1096.61 -6.17727 0
-1096.44 -8.60205 0
-1096.21 -10.7886 0
-1095.92 -12.7557 0
-1095.57 -14.5206 0
-1095.16 -16.0979 0
-1094.7 -17.5016 0
-1094.19 -18.7454 0
-1093.62 -19.8415 0
-1093.01 -20.7993 0
-1092.36 -21.6284 0
-1091.66 -22.3387 0
-1090.92 -22.9381 0
-1090.15 -23.4327 0
-1089.34 -23.8295 0
-1088.5 -24.135 0
-1087.62 -24.3531 0
-1086.71 -24.4895 0
-1085.77 -24.5503 0
-1084.8 -24.5382 0
-1083.79 -24.4602 0
-1082.76 -24.3172 0
-1081.7 -24.1137 0
-1080.61 -23.8541 0
-1079.49 -23.542 0
-1078.34 -23.1822 0
-1077.17 -22.7765 0
-1075.96 -22.3301 0
-1074.73 -21.8459 0
-1073.47 -21.3255 0
-1072.19 -20.7738 0
-1070.88 -20.1952 0
-1069.55 -19.5904 0
-1068.19 -18.9625 0
-1066.81 -18.3165 0
-1065.4 -17.6528 0
-1063.98 -16.9747 0
-1062.53 -16.2854 0
-1061.06 -15.586 0
-1059.57 -14.8801 0
-1058.06 -14.1695 0
-1056.54 -13.4557 0
-1054.99 -12.7424 0
-1053.43 -12.0299 0
-1051.85 -11.3198 0
-1050.26 -10.6144 0
-1048.65 -9.91513 0
-1047.02 -9.22447 0
-1045.39 -8.54171 0
-1043.74 -7.86906 0
-1042.07 -7.20941 0
-1040.4 -6.56177 0
-1038.71 -5.92708 0
-1037.02 -5.30843 0
-1035.32 -4.70387 0
-1033.6 -4.11629 0
-1031.88 -3.54357 0
-1030.15 -2.99192 0
-1028.42 -2.45557 0
-1026.67 -1.93954 0
-1024.92 -1.44254 0
-1023.17 -0.965296 0
-1021.41 -0.5071 0
-1019.64 -0.0703051 0
-1017.88 0.34739 0
-1016.11 0.744797 0
-1014.33 1.12102 0
-1012.55 1.47614 0
-1010.77 1.81044 0
-1008.99 2.1249 0
-1007.21 2.41795 0
-1005.42 2.69146 0
-1003.64 2.94277 0
-1001.85 3.17553 0
-1000.07 3.38701 0
-998.283 3.57925 0
-996.499 3.75141 0
-994.713 3.90509 0
-992.93 4.04023 0
-991.149 4.15495 0
-989.369 4.25203 0
-987.592 4.33026 0
-985.816 4.39216 0
-984.042 4.43614 0
-982.271 4.46437 0
-980.503 4.47624 0
-978.737 4.47276 0
-976.973 4.45297 0
-975.214 4.4178 0
-973.458 4.36893 0
-971.705 4.30637 0
-969.955 4.22934 0
-968.208 4.13987 0
-966.466 4.03798 0
-964.726 3.92598 0
-962.991 3.80252 0
-961.26 3.66773 0
-959.531 3.52291 0
-957.808 3.36719 0
-956.087 3.20341 0
-954.371 3.03147 0
-952.66 2.84947 0
-950.952 2.66168 0
-949.248 2.46722 0
-947.549 2.26536 0
-945.853 2.05809 0
-944.161 1.84708 0
-942.472 1.62947 0
-940.787 1.40763 0
-939.106 1.17996 0
-937.429 0.950953 0
-935.756 0.718684 0
-934.086 0.483573 0
-932.42 0.246798 0
-930.758 0.00768786 0
-929.1 -0.232807 0
-927.444 -0.473041 0
-925.791 -0.7157 0
-924.142 -0.957505 0
-922.496 -1.198 0
-920.853 -1.43832 0
-919.211 -1.67879 0
-917.574 -1.91572 0
-915.94 -2.15128 0
-914.308 -2.38484 0
-912.678 -2.61735 0
-911.052 -2.84506 0
-909.426 -3.0727 0
-907.803 -3.29588 0
-906.184 -3.51741 0
-904.565 -3.73081 0
-902.948 -3.94387 0
-901.334 -4.15152 0
-899.72 -4.35579 0
-898.109 -4.55578 0
-896.499 -4.74945 0
-894.892 -4.94128 0
-893.286 -5.1259 0
-891.679 -5.30618 0
-890.076 -5.48176 0
-888.473 -5.65133 0
-886.872 -5.81439 0
-885.27 -5.97157 0
-883.67 -6.12438 0
-882.069 -6.27314 0
-880.47 -6.41556 0
-878.87 -6.5514 0
-877.273 -6.68308 0
-875.675 -6.80689 0
-874.077 -6.92623 0
-872.481 -7.03777 0
-870.884 -7.14528 0
-869.286 -7.24726 0
-867.69 -7.3414 0
-866.092 -7.4322 0
-864.496 -7.5155 0
-862.899 -7.59477 0
-861.301 -7.66773 0
-859.703 -7.73482 0
-858.105 -7.79689 0
-856.507 -7.85388 0
-854.909 -7.90486 0
-853.31 -7.9527 0
-851.709 -7.99336 0
-850.109 -8.02736 0
-848.508 -8.05802 0
-846.907 -8.08331 0
-845.304 -8.10543 0
-843.702 -8.12151 0
-842.099 -8.1342 0
-840.495 -8.14315 0
-838.89 -8.1453 0
-837.283 -8.14538 0
-835.676 -8.14053 0
-834.068 -8.13076 0
-832.459 -8.1196 0
-830.847 -8.10406 0
-829.237 -8.0845 0
-827.626 -8.06094 0
-826.013 -8.0345 0
-824.399 -8.00568 0
-822.785 -7.97308 0
-821.171 -7.93989 0
-819.554 -7.90075 0
-817.935 -7.85977 0
-816.317 -7.81675 0
-814.698 -7.77111 0
-813.078 -7.72485 0
-811.458 -7.67522 0
-809.835 -7.6232 0
-808.211 -7.56954 0
-806.587 -7.5144 0
-804.96 -7.45858 0
-803.333 -7.40318 0
-801.706 -7.34431 0
-800.079 -7.28359 0
-798.45 -7.22244 0
-796.82 -7.16129 0
-795.19 -7.10072 0
-793.557 -7.03609 0
-791.924 -6.97252 0
-790.292 -6.90912 0
-788.656 -6.8434 0
-787.02 -6.77841 0
-785.383 -6.71223 0
-783.747 -6.64672 0
-782.113 -6.58163 0
-780.472 -6.51725 0
-778.834 -6.45229 0
-777.193 -6.38736 0
-775.552 -6.32274 0
-773.91 -6.25858 0
-772.269 -6.19555 0
-770.627 -6.13334 0
-768.984 -6.0716 0
-767.341 -6.01219 0
-765.695 -5.95051 0
-764.05 -5.89019 0
-762.404 -5.83369 0
-760.757 -5.77553 0
-759.112 -5.71969 0
-757.464 -5.66325 0
-755.817 -5.61025 0
-754.169 -5.55674 0
-752.52 -5.50744 0
-750.871 -5.45715 0
-749.223 -5.40827 0
-747.575 -5.36016 0
-745.923 -5.31422 0
-744.274 -5.2696 0
-742.624 -5.22444 0
-740.973 -5.18328 0
-739.323 -5.14368 0
-737.673 -5.10526 0
-736.02 -5.06789 0
-734.369 -5.03384 0
-732.719 -4.99913 0
-731.068 -4.9671 0
-729.417 -4.93613 0
-727.765 -4.90655 0
-726.114 -4.8805 0
-724.46 -4.85581 0
-722.809 -4.83067 0
-721.156 -4.80776 0
-719.505 -4.787 0
-717.855 -4.76764 0
-716.203 -4.7511 0
-714.551 -4.73571 0
-712.9 -4.7194 0
-711.248 -4.70527 0
-709.596 -4.69446 0
-707.944 -4.6839 0
-706.293 -4.67605 0
-704.642 -4.66885 0
-702.991 -4.66386 0
-701.342 -4.66046 0
-699.693 -4.65673 0
-698.043 -4.6554 0
-696.393 -4.65441 0
-694.743 -4.65516 0
-693.092 -4.65767 0
-691.442 -4.66004 0
-689.791 -4.66587 0
-688.143 -4.67055 0
-686.495 -4.67776 0
-684.848 -4.68576 0
-683.198 -4.69607 0
-681.55 -4.70785 0
-679.902 -4.7183 0
-678.255 -4.7326 0
-676.606 -4.74491 0
-674.96 -4.76058 0
-673.312 -4.77492 0
-671.665 -4.79376 0
-670.018 -4.811 0
-668.372 -4.82919 0
-666.728 -4.84746 0
-665.083 -4.86789 0
-663.437 -4.88788 0
-661.792 -4.9096 0
-660.149 -4.93176 0
-658.503 -4.95405 0
-656.859 -4.97739 0
-655.216 -4.99884 0
-653.571 -5.02361 0
-651.928 -5.04686 0
-650.285 -5.06981 0
-648.643 -5.09529 0
-647.002 -5.12267 0
-645.36 -5.14727 0
-643.718 -5.16893 0
-642.077 -5.19529 0
-640.435 -5.22399 0
-638.794 -5.24928 0
-637.153 -5.27618 0
-635.51 -5.30396 0
-633.871 -5.33034 0
-632.231 -5.35762 0
-630.591 -5.38511 0
-628.953 -5.41224 0
-627.315 -5.44033 0
-625.675 -5.46552 0
-624.034 -5.49172 0
-622.397 -5.51847 0
-620.758 -5.54541 0
-619.118 -5.57209 0
-617.48 -5.5977 0
-615.844 -5.62403 0
-614.207 -5.6474 0
-612.568 -5.67378 0
-610.931 -5.69851 0
-609.292 -5.72465 0
-607.655 -5.74908 0
-606.018 -5.77542 0
-604.382 -5.79993 0
-602.745 -5.82395 0
-601.108 -5.84774 0
-599.472 -5.87065 0
-597.836 -5.89245 0
-596.2 -5.9162 0
-594.563 -5.93528 0
-592.928 -5.95687 0
-591.29 -5.97626 0
-589.657 -5.99655 0
-588.022 -6.0205 0
-586.385 -6.0388 0
-584.749 -6.05602 0
-583.114 -6.07499 0
-581.48 -6.09175 0
-579.842 -6.11051 0
-578.207 -6.12842 0
-576.573 -6.14452 0
-574.936 -6.16137 0
-573.301 -6.17797 0
-571.668 -6.19334 0
-570.033 -6.20598 0
-568.399 -6.21989 0
-566.761 -6.23261 0
-565.125 -6.24682 0
-563.489 -6.25962 0
-561.853 -6.27148 0
-560.218 -6.28284 0
-558.585 -6.29395 0
-556.949 -6.30455 0
-555.316 -6.31549 0
-553.681 -6.32181 0
-552.046 -6.33126 0
-550.411 -6.34111 0
-548.775 -6.34692 0
-547.14 -6.35665 0
-545.505 -6.36097 0
-543.87 -6.36738 0
-542.234 -6.37413 0
-540.599 -6.38033 0
-538.966 -6.38219 0
-537.33 -6.3885 0
-535.695 -6.39239 0
-534.056 -6.39738 0
-532.42 -6.4006 0
-530.786 -6.40194 0
-529.151 -6.40312 0
-527.513 -6.40637 0
-525.879 -6.41018 0
-524.244 -6.41123 0
-522.607 -6.41157 0
-520.972 -6.41252 0
-519.337 -6.41168 0
-517.701 -6.41135 0
-516.063 -6.40969 0
-514.425 -6.40865 0
-512.787 -6.40922 0
-511.154 -6.40663 0
-509.516 -6.40431 0
-507.879 -6.40237 0
-506.244 -6.40014 0
-504.609 -6.39726 0
-502.971 -6.39342 0
-501.335 -6.39025 0
-499.696 -6.38764 0
-498.058 -6.38494 0
-496.421 -6.37719 0
-494.786 -6.37244 0
-493.15 -6.37033 0
-491.513 -6.36677 0
-489.872 -6.36017 0
-488.237 -6.35681 0
-486.601 -6.34966 0
-484.962 -6.3467 0
-483.324 -6.33872 0
-481.685 -6.33528 0
-480.046 -6.32771 0
-478.409 -6.32181 0
-476.773 -6.31559 0
-475.13 -6.30906 0
-473.494 -6.30424 0
-471.857 -6.29676 0
-470.217 -6.29164 0
-468.58 -6.28809 0
-466.943 -6.28101 0
-465.306 -6.27583 0
-463.669 -6.27014 0
-462.03 -6.26087 0
-460.391 -6.255 0
-458.753 -6.24935 0
-457.113 -6.2445 0
-455.473 -6.23685 0
-453.833 -6.2319 0
-452.195 -6.22431 0
-450.555 -6.21628 0
-448.914 -6.21099 0
-447.277 -6.20516 0
-445.637 -6.19913 0
-443.998 -6.19801 0
-442.36 -6.18988 0
-440.723 -6.18208 0
-439.084 -6.17743 0
-437.443 -6.17152 0
-435.803 -6.164 0
-434.164 -6.16148 0
-432.523 -6.15415 0
-430.882 -6.15081 0
-429.244 -6.1452 0
-427.605 -6.14182 0
-425.966 -6.13357 0
-424.327 -6.12968 0
-422.687 -6.12779 0
-421.047 -6.12092 0
-419.409 -6.11568 0
-417.771 -6.10889 0
-416.129 -6.10582 0
-414.489 -6.106 0
-412.849 -6.10155 0
-411.212 -6.09545 0
-409.572 -6.09183 0
-407.931 -6.08654 0
-406.29 -6.08367 0
-404.653 -6.08367 0
-403.012 -6.07818 0
-401.372 -6.07373 0
-399.732 -6.07405 0
-398.09 -6.07096 0
-396.45 -6.06895 0
-394.811 -6.0653 0
-393.17 -6.06545 0
-391.528 -6.06164 0
-389.887 -6.0608 0
-388.249 -6.05789 0
-386.611 -6.05808 0
-384.973 -6.0557 0
-383.332 -6.05057 0
-381.689 -6.04926 0
-380.051 -6.04814 0
-378.413 -6.04894 0
-376.772 -6.04749 0
-375.131 -6.04855 0
-373.495 -6.04693 0
-371.852 -6.04472 0
-370.213 -6.04514 0
-368.573 -6.04561 0
-366.933 -6.04459 0
-365.295 -6.04403 0
-363.657 -6.04337 0
-362.015 -6.0452 0
-360.375 -6.04116 0
-358.733 -6.04248 0
-357.093 -6.04521 0
-355.454 -6.04761 0
-353.813 -6.04757 0
-352.176 -6.04763 0
-350.535 -6.05005 0
-348.898 -6.05144 0
-347.258 -6.05241 0
-345.619 -6.05132 0
-343.98 -6.04991 0
-342.34 -6.05473 0
-340.701 -6.05391 0
-339.061 -6.05758 0
-337.418 -6.05968 0
-335.781 -6.06254 0
-334.146 -6.06539 0
-332.505 -6.06552 0
-330.867 -6.07011 0
-329.229 -6.07121 0
-327.587 -6.07494 0
-325.95 -6.07526 0
-324.309 -6.07747 0
-322.67 -6.08096 0
-321.031 -6.08454 0
-319.391 -6.08303 0
-317.752 -6.08633 0
-316.112 -6.08562 0
-314.474 -6.09269 0
-312.835 -6.09563 0
-311.196 -6.09804 0
-309.555 -6.10268 0
-307.92 -6.10917 0
-306.28 -6.11056 0
-304.642 -6.11119 0
-303.006 -6.11265 0
-301.366 -6.11732 0
-299.728 -6.11997 0
-298.091 -6.12378 0
-296.452 -6.12586 0
-294.813 -6.12651 0
-293.174 -6.12926 0
-291.534 -6.13299 0
-289.898 -6.13851 0
-288.259 -6.13826 0
-286.619 -6.13781 0
-284.982 -6.1424 0
-283.345 -6.14638 0
-281.704 -6.14976 0
-280.068 -6.15401 0
-278.43 -6.15665 0
-276.788 -6.16161 0
-275.149 -6.16389 0
-273.513 -6.16685 0
-271.876 -6.16573 0
-270.239 -6.16864 0
-268.601 -6.17151 0
-266.961 -6.17596 0
-265.324 -6.17709 0
-263.685 -6.18147 0
-262.047 -6.18083 0
-260.41 -6.18574 0
-258.77 -6.18728 0
-257.132 -6.19199 0
-255.495 -6.193 0
-253.856 -6.19865 0
-252.218 -6.19997 0
-250.579 -6.20272 0
-248.943 -6.20709 0
-247.305 -6.20981 0
-245.669 -6.21248 0
-244.029 -6.21304 0
-242.391 -6.21323 0
-240.75 -6.21565 0
-239.113 -6.22141 0
-237.478 -6.22575 0
-235.841 -6.2249 0
-234.204 -6.22705 0
-232.565 -6.22954 0
-230.927 -6.23289 0
-229.288 -6.23135 0
-227.655 -6.23431 0
-226.016 -6.23666 0
-224.38 -6.23696 0
-222.742 -6.24082 0
-221.103 -6.23893 0
-219.464 -6.23899 0
-217.826 -6.23945 0
-216.189 -6.24367 0
-214.551 -6.24366 0
-212.91 -6.24424 0
-211.274 -6.24789 0
-209.638 -6.24995 0
-208.001 -6.25209 0
-206.361 -6.25145 0
-204.723 -6.25213 0
-203.086 -6.25061 0
-201.447 -6.25393 0
-199.811 -6.25013 0
-198.173 -6.25596 0
-196.534 -6.25718 0
-194.898 -6.25428 0
-193.26 -6.25605 0
-191.622 -6.25535 0
-189.986 -6.25799 0
-188.347 -6.25641 0
-186.71 -6.25533 0
-185.071 -6.25797 0
-183.432 -6.25812 0
-181.794 -6.25817 0
-180.156 -6.25987 0
-178.519 -6.25846 0
-176.879 -6.25835 0
-175.242 -6.25818 0
-173.604 -6.25514 0
-171.967 -6.25733 0
-170.329 -6.25619 0
-168.691 -6.25743 0
-167.051 -6.2548 0
-165.415 -6.25567 0
-163.776 -6.25701 0
-162.14 -6.25695 0
-160.503 -6.25848 0
-158.866 -6.2578 0
-157.227 -6.25479 0
-155.588 -6.25482 0
-153.951 -6.25201 0
-152.315 -6.25397 0
-150.68 -6.25426 0
-149.041 -6.25041 0
-147.401 -6.25236 0
-145.764 -6.25124 0
-144.128 -6.24928 0
-142.489 -6.25114 0
-140.852 -6.2529 0
-139.215 -6.24903 0
-137.579 -6.24915 0
-135.938 -6.24751 0
-134.298 -6.24503 0
-132.66 -6.24435 0
-131.024 -6.24713 0
-129.388 -6.24197 0
-127.749 -6.24275 0
-126.113 -6.24134 0
-124.473 -6.23877 0
-122.836 -6.24295 0
-121.199 -6.24178 0
-119.561 -6.2378 0
-117.921 -6.23929 0
-116.286 -6.23781 0
-114.646 -6.23693 0
-113.01 -6.23522 0
-111.37 -6.23305 0
-109.728 -6.23558 0
-108.096 -6.23388 0
-106.459 -6.23232 0
-104.819 -6.22877 0
-103.183 -6.23105 0
-101.544 -6.22978 0
-99.9034 -6.23101 0
-98.2657 -6.22993 0
-96.6277 -6.22885 0
-94.9933 -6.22237 0
-93.3538 -6.22068 0
-91.7147 -6.21967 0
-90.0761 -6.22271 0
-88.4378 -6.22232 0
-86.7997 -6.22195 0
-85.1612 -6.22099 0
-83.5219 -6.21906 0
-81.8857 -6.21682 0
-80.2494 -6.21776 0
-78.6105 -6.21973 0
-76.9756 -6.21614 0
-75.3357 -6.21612 0
-73.6995 -6.21554 0
-72.0617 -6.21714 0
-70.4229 -6.21315 0
-68.7837 -6.21377 0
-67.1494 -6.21313 0
-65.5105 -6.2146 0
-63.875 -6.2136 0
-62.2362 -6.21157 0
-60.5963 -6.21252 0
-58.9576 -6.21166 0
-57.3222 -6.20926 0
-55.6832 -6.20953 0
-54.0479 -6.20992 0
-52.4109 -6.20418 0
-50.7726 -6.20564 0
-49.1347 -6.20459 0
-47.4959 -6.20321 0
-45.8563 -6.20421 0
-44.2243 -6.20386 0
-42.5833 -6.2006 0
-40.9467 -6.19942 0
-39.3097 -6.19549 0
-37.6704 -6.19693 0
-36.0333 -6.19986 0
-34.3941 -6.19109 0
-32.7555 -6.19213 0
-31.1177 -6.19271 0
-29.4791 -6.19267 0
-27.8428 -6.19147 0
-26.2044 -6.19563 0
-24.567 -6.19385 0
-22.9301 -6.19328 0
-21.2953 -6.19068 0
-19.6552 -6.18921 0
-18.0164 -6.19082 0
-16.3794 -6.19202 0
-14.7392 -6.19215 0
-13.1046 -6.19068 0
-11.4669 -6.19122 0
-9.82792 -6.1871 0
-8.18862 -6.18723 0
-6.55033 -6.18637 0
-4.91533 -6.18896 0
-3.27622 -6.18969 0
-1.63695 -6.18811 0
0 -6.19275 0
-1101.84 83.3175 0
-1101.82 75.6532 0
-1101.8 68.1964 0
-1101.74 61.034 0
-1101.68 54.191 0
-1101.66 47.6199 0
-1101.62 41.2744 0
-1101.53 35.1996 0
-1101.4 29.4678 0
-1101.25 24.1109 0
-1101.08 19.1329 0
-1100.9 14.5311 0
-1100.69 10.2973 0
-1100.45 6.41981 0
-1100.19 2.88319 0
-1099.89 -0.331176 0
-1099.56 -3.24447 0
-1099.18 -5.87941 0
-1098.77 -8.2557 0
-1098.31 -10.3938 0
-1097.8 -12.3127 0
-1097.26 -14.0302 0
-1096.67 -15.5612 0
-1096.04 -16.9209 0
-1095.36 -18.1223 0
-1094.66 -19.177 0
-1093.91 -20.0957 0
-1093.13 -20.8885 0
-1092.32 -21.5642 0
-1091.47 -22.1292 0
-1090.6 -22.5914 0
-1089.69 -22.9574 0
-1088.76 -23.2324 0
-1087.8 -23.4206 0
-1086.81 -23.5281 0
-1085.8 -23.5605 0
-1084.75 -23.5209 0
-1083.69 -23.4146 0
-1082.59 -23.2443 0
-1081.47 -23.0135 0
-1080.33 -22.7274 0
-1079.16 -22.3888 0
-1077.96 -22.0024 0
-1076.74 -21.5709 0
-1075.5 -21.0988 0
-1074.23 -20.5895 0
-1072.94 -20.0454 0
-1071.63 -19.4695 0
-1070.3 -18.867 0
-1068.94 -18.2384 0
-1067.56 -17.5891 0
-1066.16 -16.9208 0
-1064.74 -16.2357 0
-1063.3 -15.5372 0
-1061.84 -14.8276 0
-1060.37 -14.1095 0
-1058.87 -13.3845 0
-1057.36 -12.6562 0
-1055.83 -11.9256 0
-1054.29 -11.1949 0
-1052.72 -10.4666 0
-1051.15 -9.74165 0
-1049.56 -9.02172 0
-1047.96 -8.30894 0
-1046.34 -7.60494 0
-1044.71 -6.90917 0
-1043.08 -6.22533 0
-1041.43 -5.5538 0
-1039.77 -4.89584 0
-1038.09 -4.25129 0
-1036.42 -3.62248 0
-1034.73 -3.01006 0
-1033.03 -2.41431 0
-1031.33 -1.83508 0
-1029.61 -1.27476 0
-1027.9 -0.731953 0
-1026.17 -0.209937 0
-1024.44 0.292168 0
-1022.71 0.775227 0
-1020.97 1.23675 0
-1019.22 1.67786 0
-1017.48 2.09943 0
-1015.72 2.50025 0
-1013.97 2.87961 0
-1012.21 3.23646 0
-1010.45 3.57313 0
-1008.69 3.88924 0
-1006.93 4.18375 0
-1005.17 4.45758 0
-1003.4 4.70997 0
-1001.63 4.9433 0
-999.869 5.15451 0
-998.103 5.34595 0
-996.337 5.51794 0
-994.572 5.67087 0
-992.808 5.80399 0
-991.046 5.91826 0
-989.284 6.01317 0
-987.524 6.09035 0
-985.764 6.15008 0
-984.008 6.19185 0
-982.253 6.21782 0
-980.5 6.22718 0
-978.75 6.2206 0
-977.002 6.19876 0
-975.257 6.16047 0
-973.514 6.10813 0
-971.775 6.0425 0
-970.038 5.96261 0
-968.304 5.86914 0
-966.572 5.76547 0
-964.845 5.64929 0
-963.12 5.52213 0
-961.399 5.38422 0
-959.682 5.23519 0
-957.966 5.07613 0
-956.256 4.90903 0
-954.548 4.73223 0
-952.843 4.54716 0
-951.143 4.35528 0
-949.446 4.15732 0
-947.752 3.95202 0
-946.062 3.74155 0
-944.375 3.52564 0
-942.691 3.30512 0
-941.011 3.0795 0
-939.333 2.84939 0
-937.659 2.61641 0
-935.988 2.38051 0
-934.32 2.14169 0
-932.657 1.9014 0
-930.996 1.66011 0
-929.339 1.41569 0
-927.683 1.17213 0
-926.031 0.92689 0
-924.382 0.682667 0
-922.734 0.439318 0
-921.091 0.196236 0
-919.449 -0.0456704 0
-917.809 -0.286345 0
-916.173 -0.524789 0
-914.539 -0.760969 0
-912.907 -0.994949 0
-911.278 -1.22561 0
-909.65 -1.45484 0
-908.023 -1.68021 0
-906.399 -1.90295 0
-904.777 -2.12038 0
-903.156 -2.33449 0
-901.537 -2.54352 0
-899.921 -2.74886 0
-898.305 -2.94992 0
-896.691 -3.14683 0
-895.078 -3.33934 0
-893.466 -3.5249 0
-891.856 -3.7063 0
-890.247 -3.8834 0
-888.638 -4.05394 0
-887.03 -4.21831 0
-885.424 -4.37615 0
-883.818 -4.5301 0
-882.213 -4.67869 0
-880.608 -4.82083 0
-879.003 -4.95815 0
-877.398 -5.08953 0
-875.796 -5.21536 0
-874.193 -5.3331 0
-872.589 -5.44602 0
-870.987 -5.55305 0
-869.384 -5.65504 0
-867.783 -5.75044 0
-866.18 -5.83983 0
-864.577 -5.92412 0
-862.973 -6.00217 0
-861.37 -6.07596 0
-859.767 -6.14312 0
-858.163 -6.20369 0
-856.559 -6.26056 0
-854.956 -6.31173 0
-853.352 -6.35815 0
-851.748 -6.39684 0
-850.142 -6.43188 0
-848.536 -6.46238 0
-846.93 -6.48698 0
-845.324 -6.50861 0
-843.716 -6.52416 0
-842.108 -6.53619 0
-840.5 -6.54359 0
-838.89 -6.54527 0
-837.28 -6.54406 0
-835.669 -6.53849 0
-834.058 -6.52897 0
-832.445 -6.51544 0
-830.831 -6.49947 0
-829.217 -6.47994 0
-827.601 -6.45484 0
-825.986 -6.4284 0
-824.37 -6.39886 0
-822.752 -6.36507 0
-821.134 -6.32933 0
-819.514 -6.28957 0
-817.895 -6.24846 0
-816.274 -6.20459 0
-814.652 -6.1591 0
-813.03 -6.11042 0
-811.406 -6.06059 0
-809.783 -6.00766 0
-808.157 -5.95295 0
-806.531 -5.89652 0
-804.906 -5.84026 0
-803.277 -5.78198 0
-801.648 -5.72419 0
-800.019 -5.66282 0
-798.39 -5.60002 0
-796.759 -5.53862 0
-795.128 -5.47579 0
-793.495 -5.41217 0
-791.862 -5.34788 0
-790.226 -5.28242 0
-788.592 -5.21611 0
-786.956 -5.1501 0
-785.319 -5.08375 0
-783.683 -5.01693 0
-782.046 -4.95183 0
-780.408 -4.88595 0
-778.768 -4.82068 0
-777.128 -4.75524 0
-775.488 -4.69012 0
-773.848 -4.62664 0
-772.206 -4.56301 0
-770.565 -4.498 0
-768.923 -4.43661 0
-767.279 -4.37534 0
-765.636 -4.31442 0
-763.992 -4.25364 0
-762.347 -4.19594 0
-760.702 -4.13802 0
-759.056 -4.0808 0
-757.411 -4.02461 0
-755.764 -3.97042 0
-754.118 -3.91874 0
-752.47 -3.86672 0
-750.822 -3.81737 0
-749.175 -3.76707 0
-747.528 -3.71914 0
-745.878 -3.67235 0
-744.23 -3.62802 0
-742.581 -3.58455 0
-740.933 -3.54183 0
-739.285 -3.50226 0
-737.635 -3.4632 0
-735.984 -3.4258 0
-734.335 -3.39127 0
-732.686 -3.35686 0
-731.037 -3.32431 0
-729.386 -3.29358 0
-727.735 -3.26438 0
-726.087 -3.23723 0
-724.438 -3.21182 0
-722.787 -3.18756 0
-721.136 -3.16431 0
-719.485 -3.14399 0
-717.837 -3.1241 0
-716.187 -3.10883 0
-714.536 -3.0917 0
-712.885 -3.07706 0
-711.235 -3.06317 0
-709.586 -3.05097 0
-707.937 -3.04139 0
-706.287 -3.03364 0
-704.637 -3.02594 0
-702.987 -3.02195 0
-701.338 -3.01862 0
-699.688 -3.01531 0
-698.04 -3.01351 0
-696.392 -3.0133 0
-694.743 -3.01445 0
-693.096 -3.01598 0
-691.447 -3.01947 0
-689.799 -3.02372 0
-688.151 -3.0309 0
-686.504 -3.03852 0
-684.856 -3.04788 0
-683.21 -3.05519 0
-681.562 -3.06766 0
-679.915 -3.07932 0
-678.268 -3.09152 0
-676.621 -3.10722 0
-674.975 -3.12202 0
-673.33 -3.13727 0
-671.683 -3.15462 0
-670.037 -3.17251 0
-668.392 -3.19091 0
-666.747 -3.21068 0
-665.103 -3.22967 0
-663.459 -3.25131 0
-661.816 -3.27373 0
-660.171 -3.2944 0
-658.526 -3.31727 0
-656.88 -3.33995 0
-655.238 -3.36439 0
-653.595 -3.3883 0
-651.951 -3.41216 0
-650.31 -3.43662 0
-648.668 -3.46169 0
-647.026 -3.4876 0
-645.385 -3.51396 0
-643.743 -3.53669 0
-642.103 -3.56276 0
-640.462 -3.58942 0
-638.82 -3.61762 0
-637.18 -3.64384 0
-635.54 -3.67117 0
-633.9 -3.69869 0
-632.26 -3.72547 0
-630.619 -3.7533 0
-628.98 -3.78123 0
-627.34 -3.80925 0
-625.701 -3.83399 0
-624.061 -3.86046 0
-622.423 -3.8876 0
-620.785 -3.91453 0
-619.146 -3.9412 0
-617.507 -3.96757 0
-615.869 -3.99328 0
-614.231 -4.01779 0
-612.593 -4.04282 0
-610.955 -4.06944 0
-609.318 -4.09576 0
-607.681 -4.11995 0
-606.045 -4.14591 0
-604.407 -4.1708 0
-602.769 -4.19386 0
-601.132 -4.21794 0
-599.496 -4.24069 0
-597.858 -4.26469 0
-596.221 -4.28588 0
-594.586 -4.3069 0
-592.948 -4.32823 0
-591.312 -4.34962 0
-589.676 -4.36967 0
-588.04 -4.39251 0
-586.405 -4.41064 0
-584.768 -4.42767 0
-583.131 -4.44682 0
-581.497 -4.46477 0
-579.86 -4.48244 0
-578.225 -4.5015 0
-576.589 -4.51719 0
-574.954 -4.53376 0
-573.318 -4.55053 0
-571.681 -4.56505 0
-570.046 -4.5783 0
-568.411 -4.59337 0
-566.775 -4.6045 0
-565.138 -4.61836 0
-563.503 -4.63132 0
-561.867 -4.64266 0
-560.231 -4.65572 0
-558.595 -4.66675 0
-556.96 -4.67669 0
-555.324 -4.68787 0
-553.689 -4.69503 0
-552.054 -4.70532 0
-550.419 -4.7128 0
-548.783 -4.72056 0
-547.148 -4.72821 0
-545.512 -4.73328 0
-543.875 -4.74017 0
-542.24 -4.74715 0
-540.606 -4.75165 0
-538.97 -4.75612 0
-537.333 -4.761 0
-535.698 -4.76488 0
-534.062 -4.76937 0
-532.426 -4.77252 0
-530.789 -4.77581 0
-529.152 -4.77666 0
-527.517 -4.777 0
-525.881 -4.78113 0
-524.244 -4.78285 0
-522.607 -4.78465 0
-520.972 -4.78408 0
-519.335 -4.78533 0
-517.698 -4.78429 0
-516.061 -4.78234 0
-514.424 -4.78115 0
-512.788 -4.77963 0
-511.152 -4.77845 0
-509.515 -4.77545 0
-507.878 -4.7733 0
-506.24 -4.7712 0
-504.604 -4.76747 0
-502.968 -4.76406 0
-501.331 -4.76133 0
-499.693 -4.75805 0
-498.054 -4.75545 0
-496.417 -4.74973 0
-494.781 -4.74504 0
-493.144 -4.74016 0
-491.507 -4.73645 0
-489.87 -4.73034 0
-488.232 -4.72581 0
-486.594 -4.71973 0
-484.956 -4.71633 0
-483.318 -4.70776 0
-481.68 -4.70391 0
-480.041 -4.69757 0
-478.404 -4.69083 0
-476.765 -4.68507 0
-475.127 -4.68035 0
-473.489 -4.67332 0
-471.85 -4.66742 0
-470.213 -4.66206 0
-468.574 -4.65696 0
-466.937 -4.65095 0
-465.299 -4.64559 0
-463.66 -4.63932 0
-462.022 -4.63115 0
-460.384 -4.62446 0
-458.744 -4.61776 0
-457.106 -4.61131 0
-455.467 -4.60532 0
-453.828 -4.59778 0
-452.189 -4.59387 0
-450.55 -4.5846 0
-448.91 -4.57955 0
-447.272 -4.57439 0
-445.634 -4.56978 0
-443.993 -4.56499 0
-442.355 -4.55837 0
-440.715 -4.55157 0
-439.077 -4.54505 0
-437.438 -4.53802 0
-435.798 -4.53321 0
-434.159 -4.52958 0
-432.518 -4.52404 0
-430.879 -4.51822 0
-429.239 -4.51302 0
-427.599 -4.509 0
-425.959 -4.50393 0
-424.32 -4.50093 0
-422.682 -4.49454 0
-421.043 -4.48957 0
-419.403 -4.4844 0
-417.765 -4.47998 0
-416.127 -4.47536 0
-414.486 -4.47208 0
-412.846 -4.46911 0
-411.204 -4.46455 0
-409.565 -4.45912 0
-407.927 -4.45652 0
-406.288 -4.45327 0
-404.649 -4.45016 0
-403.007 -4.44732 0
-401.368 -4.44387 0
-399.728 -4.4411 0
-398.087 -4.43777 0
-396.449 -4.43624 0
-394.807 -4.43474 0
-393.168 -4.43194 0
-391.527 -4.43045 0
-389.886 -4.42982 0
-388.246 -4.42785 0
-386.61 -4.42493 0
-384.97 -4.42422 0
-383.329 -4.41883 0
-381.692 -4.41865 0
-380.051 -4.41884 0
-378.412 -4.41588 0
-376.771 -4.41525 0
-375.131 -4.41558 0
-373.491 -4.41491 0
-371.851 -4.41455 0
-370.213 -4.41561 0
-368.574 -4.4131 0
-366.935 -4.41272 0
-365.295 -4.41368 0
-363.656 -4.41368 0
-362.015 -4.41299 0
-360.375 -4.41097 0
-358.736 -4.41099 0
-357.095 -4.41262 0
-355.456 -4.41678 0
-353.817 -4.41559 0
-352.176 -4.41684 0
-350.538 -4.41831 0
-348.9 -4.41999 0
-347.26 -4.4193 0
-345.619 -4.42027 0
-343.979 -4.42241 0
-342.342 -4.42169 0
-340.703 -4.42415 0
-339.066 -4.4237 0
-337.427 -4.42827 0
-335.787 -4.43302 0
-334.147 -4.43252 0
-332.508 -4.43515 0
-330.867 -4.43743 0
-329.23 -4.4408 0
-327.591 -4.44184 0
-325.949 -4.44468 0
-324.312 -4.44768 0
-322.673 -4.44897 0
-321.034 -4.45086 0
-319.395 -4.45291 0
-317.756 -4.45312 0
-316.115 -4.45807 0
-314.478 -4.46161 0
-312.84 -4.4645 0
-311.201 -4.46726 0
-309.562 -4.47061 0
-307.923 -4.47718 0
-306.284 -4.47877 0
-304.645 -4.48101 0
-303.007 -4.48158 0
-301.371 -4.48652 0
-299.731 -4.48928 0
-298.091 -4.49203 0
-296.453 -4.49425 0
-294.815 -4.49636 0
-293.176 -4.49974 0
-291.536 -4.50042 0
-289.899 -4.50711 0
-288.261 -4.50695 0
-286.622 -4.50922 0
-284.984 -4.5129 0
-283.346 -4.51679 0
-281.71 -4.52077 0
-280.07 -4.5237 0
-278.43 -4.52539 0
-276.791 -4.52883 0
-275.152 -4.53416 0
-273.515 -4.53503 0
-271.877 -4.53713 0
-270.238 -4.54127 0
-268.601 -4.5425 0
-266.964 -4.54621 0
-265.326 -4.54736 0
-263.688 -4.5493 0
-262.052 -4.55099 0
-260.412 -4.55682 0
-258.775 -4.55808 0
-257.135 -4.56155 0
-255.496 -4.56399 0
-253.859 -4.56807 0
-252.221 -4.57005 0
-250.584 -4.57252 0
-248.947 -4.57824 0
-247.309 -4.57795 0
-245.669 -4.58061 0
-244.031 -4.58185 0
-242.394 -4.58191 0
-240.757 -4.58666 0
-239.121 -4.5905 0
-237.481 -4.59368 0
-235.844 -4.59438 0
-234.206 -4.59574 0
-232.567 -4.59906 0
-230.928 -4.60311 0
-229.292 -4.60387 0
-227.655 -4.60404 0
-226.018 -4.60543 0
-224.38 -4.60711 0
-222.743 -4.60954 0
-221.103 -4.60814 0
-219.465 -4.60781 0
-217.826 -4.61098 0
-216.189 -4.61083 0
-214.553 -4.61446 0
-212.916 -4.61593 0
-211.276 -4.6171 0
-209.639 -4.62055 0
-207.999 -4.62033 0
-206.362 -4.62247 0
-204.724 -4.62197 0
-203.087 -4.6207 0
-201.448 -4.62342 0
-199.811 -4.62387 0
-198.175 -4.62474 0
-196.535 -4.62522 0
-194.897 -4.62665 0
-193.261 -4.62562 0
-191.623 -4.62652 0
-189.984 -4.62783 0
-188.347 -4.62708 0
-186.707 -4.62658 0
-185.071 -4.62754 0
-183.43 -4.62799 0
-181.793 -4.62826 0
-180.154 -4.63109 0
-178.516 -4.62868 0
-176.879 -4.62835 0
-175.242 -4.62845 0
-173.603 -4.6276 0
-171.965 -4.62613 0
-170.329 -4.62898 0
-168.691 -4.62731 0
-167.054 -4.6256 0
-165.417 -4.62555 0
-163.778 -4.62584 0
-162.139 -4.62766 0
-160.502 -4.62929 0
-158.862 -4.62678 0
-157.225 -4.62602 0
-155.588 -4.62387 0
-153.951 -4.62377 0
-152.315 -4.62449 0
-150.676 -4.62301 0
-149.039 -4.62126 0
-147.402 -4.62076 0
-145.761 -4.62122 0
-144.126 -4.62294 0
-142.49 -4.62114 0
-140.85 -4.62211 0
-139.213 -4.62249 0
-137.574 -4.61914 0
-135.936 -4.61554 0
-134.298 -4.61553 0
-132.662 -4.61342 0
-131.023 -4.61493 0
-129.387 -4.614 0
-127.749 -4.61232 0
-126.109 -4.60986 0
-124.472 -4.60943 0
-122.835 -4.60991 0
-121.197 -4.61062 0
-119.558 -4.6081 0
-117.92 -4.61 0
-116.285 -4.60922 0
-114.646 -4.60778 0
-113.008 -4.60495 0
-111.371 -4.60179 0
-109.732 -4.60397 0
-108.094 -4.60392 0
-106.456 -4.6026 0
-104.82 -4.60042 0
-103.181 -4.60103 0
-101.542 -4.60158 0
-99.9039 -4.60001 0
-98.2641 -4.60015 0
-96.6264 -4.59845 0
-94.9902 -4.59424 0
-93.3526 -4.58996 0
-91.715 -4.59091 0
-90.0777 -4.59131 0
-88.44 -4.59259 0
-86.7999 -4.59171 0
-85.1622 -4.5914 0
-83.526 -4.58765 0
-81.8883 -4.58847 0
-80.2503 -4.58781 0
-78.6121 -4.58949 0
-76.9739 -4.58762 0
-75.3364 -4.5875 0
-73.6984 -4.58589 0
-72.0608 -4.58585 0
-70.4231 -4.58249 0
-68.7871 -4.58438 0
-67.1501 -4.583 0
-65.5111 -4.58357 0
-63.873 -4.58313 0
-62.2353 -4.58319 0
-60.5976 -4.58276 0
-58.9585 -4.58074 0
-57.3206 -4.57905 0
-55.6826 -4.57811 0
-54.0451 -4.57824 0
-52.4086 -4.57592 0
-50.7718 -4.5758 0
-49.1342 -4.57396 0
-47.4968 -4.574 0
-45.858 -4.57471 0
-44.2203 -4.57252 0
-42.5831 -4.57179 0
-40.9464 -4.56983 0
-39.3094 -4.56639 0
-37.6714 -4.56697 0
-36.0325 -4.56712 0
-34.3936 -4.56543 0
-32.7544 -4.56264 0
-31.1175 -4.56289 0
-29.4797 -4.5637 0
-27.8439 -4.5644 0
-26.2056 -4.56351 0
-24.567 -4.56465 0
-22.9295 -4.56363 0
-21.2927 -4.56148 0
-19.6549 -4.56039 0
-18.0175 -4.56015 0
-16.3786 -4.56124 0
-14.7406 -4.56359 0
-13.1028 -4.56068 0
-11.4663 -4.55763 0
-9.82723 -4.55783 0
-8.19084 -4.55907 0
-6.55287 -4.55703 0
-4.91389 -4.55724 0
-3.27614 -4.55837 0
-1.63917 -4.55808 0
0 -4.56008 0
-1109.8 83.8448 0
-1109.39 76.0015 0
-1109.11 68.5695 0
-1108.8 61.4198 0
-1108.48 54.547 0
-1108.16 47.9465 0
-1107.83 41.628 0
-1107.45 35.6027 0
-1107 29.9006 0
-1106.51 24.5558 0
-1105.99 19.5853 0
-1105.45 14.9902 0
-1104.89 10.7657 0
-1104.31 6.89998 0
-1103.72 3.37831 0
-1103.1 0.182302 0
-1102.48 -2.70935 0
-1101.83 -5.31835 0
-1101.15 -7.66651 0
-1100.46 -9.775 0
-1099.73 -11.6632 0
-1098.98 -13.3486 0
-1098.21 -14.8485 0
-1097.4 -16.1776 0
-1096.58 -17.3482 0
-1095.72 -18.3733 0
-1094.84 -19.2636 0
-1093.93 -20.0286 0
-1093 -20.6771 0
-1092.05 -21.2153 0
-1091.07 -21.6524 0
-1090.07 -21.993 0
-1089.05 -22.2426 0
-1088 -22.4068 0
-1086.93 -22.4912 0
-1085.84 -22.499 0
-1084.73 -22.4361 0
-1083.6 -22.3055 0
-1082.44 -22.1116 0
-1081.26 -21.8581 0
-1080.06 -21.5486 0
-1078.84 -21.1874 0
-1077.6 -20.7783 0
-1076.34 -20.3245 0
-1075.05 -19.8302 0
-1073.75 -19.299 0
-1072.43 -18.7335 0
-1071.08 -18.1367 0
-1069.72 -17.5132 0
-1068.34 -16.865 0
-1066.94 -16.196 0
-1065.52 -15.5083 0
-1064.09 -14.8052 0
-1062.63 -14.0875 0
-1061.16 -13.3605 0
-1059.68 -12.6253 0
-1058.18 -11.8845 0
-1056.66 -11.14 0
-1055.13 -10.3947 0
-1053.58 -9.64955 0
-1052.03 -8.90629 0
-1050.45 -8.16812 0
-1048.87 -7.43512 0
-1047.27 -6.70996 0
-1045.67 -5.99429 0
-1044.05 -5.28729 0
-1042.42 -4.59303 0
-1040.78 -3.91101 0
-1039.13 -3.24352 0
-1037.48 -2.58951 0
-1035.81 -1.95252 0
-1034.14 -1.33224 0
-1032.46 -0.728449 0
-1030.77 -0.142834 0
-1029.08 0.424102 0
-1027.38 0.972692 0
-1025.67 1.5003 0
-1023.96 2.00774 0
-1022.25 2.49552 0
-1020.53 2.96173 0
-1018.8 3.40679 0
-1017.07 3.83126 0
-1015.34 4.23484 0
-1013.61 4.61642 0
-1011.87 4.977 0
-1010.13 5.3157 0
-1008.39 5.63279 0
-1006.65 5.92882 0
-1004.91 6.2033 0
-1003.16 6.45684 0
-1001.41 6.69094 0
-999.669 6.90249 0
-997.922 7.09383 0
-996.176 7.26564 0
-994.43 7.4176 0
-992.684 7.54943 0
-990.941 7.66268 0
-989.196 7.75716 0
-987.454 7.83312 0
-985.712 7.89103 0
-983.972 7.9304 0
-982.233 7.95508 0
-980.496 7.96186 0
-978.761 7.95312 0
-977.027 7.92853 0
-975.297 7.88805 0
-973.569 7.8339 0