<?xml version="1.0"?>
<VTKFile type="StructuredGrid"  version="0.1" byte_order="LittleEndian" compressor="vtkZLibDataCompressor">
  <StructuredGrid WholeExtent="0 700 0 30 0 0">
    <Piece Extent="0 700 0 30 0 0">
      <PointData Vectors="Velocity">
        <DataArray type="Float32" Name="Velocity" NumberOfComponents="3" format="ascii">
-1093.96 75.8823 0
-1094.11 68.5083 0
-1094.32 61.3112 0
-1094.57 54.4038 0
-1094.8 47.8194 0
-1094.99 41.5029 0
-1095.17 35.4035 0
-1095.39 29.5735 0
-1095.63 24.0908 0
-1095.85 18.985 0
-1096.06 14.2568 0
-1096.24 9.90007 0
-1096.38 5.9052 0
-1096.49 2.25951 0
-1096.55 -1.05368 0
-1096.55 -4.05309 0
-1096.5 -6.76094 0
-1096.38 -9.19637 0
-1096.19 -11.3809 0
-1095.95 -13.3331 0
-1095.64 -15.0712 0
-1095.26 -16.6126 0
-1094.83 -17.973 0
-1094.34 -19.1668 0
-1093.8 -20.2073 0
-1093.2 -21.106 0
-1092.56 -21.8736 0
-1091.87 -22.5201 0
-1091.14 -23.0545 0
-1090.37 -23.4839 0
-1089.56 -23.8165 0
-1088.72 -24.0588 0
-1087.84 -24.2164 0
-1086.92 -24.2946 0
-1085.97 -24.2991 0
-1084.99 -24.2342 0
-1083.98 -24.1036 0
-1082.94 -23.9126 0
-1081.87 -23.6652 0
-1080.77 -23.3647 0
-1079.64 -23.0156 0
-1078.48 -22.621 0
-1077.29 -22.1845 0
-1076.07 -21.7093 0
-1074.83 -21.2 0
-1073.56 -20.659 0
-1072.26 -20.0898 0
-1070.94 -19.4942 0
-1069.6 -18.8771 0
-1068.23 -18.2412 0
-1066.83 -17.5878 0
-1065.42 -16.9208 0
-1063.98 -16.2425 0
-1062.52 -15.5552 0
-1061.03 -14.8616 0
-1059.53 -14.1638 0
-1058.01 -13.4634 0
-1056.47 -12.763 0
-1054.92 -12.0643 0
-1053.34 -11.3695 0
-1051.75 -10.6792 0
-1050.15 -9.99685 0
-1048.53 -9.32161 0
-1046.9 -8.65618 0
-1045.25 -8.00216 0
-1043.59 -7.36007 0
-1041.92 -6.7315 0
-1040.24 -6.11631 0
-1038.55 -5.517 0
-1036.85 -4.93355 0
-1035.14 -4.36631 0
-1033.42 -3.81732 0
-1031.69 -3.28568 0
-1029.96 -2.77275 0
-1028.22 -2.2787 0
-1026.47 -1.80404 0
-1024.72 -1.34982 0
-1022.96 -0.914517 0
-1021.2 -0.499856 0
-1019.44 -0.106189 0
-1017.67 0.26676 0
-1015.9 0.619245 0
-1014.13 0.951063 0
-1012.35 1.26205 0
-1010.58 1.55316 0
-1008.8 1.82371 0
-1007.02 2.07354 0
-1005.24 2.30337 0
-1003.46 2.51347 0
-1001.68 2.70358 0
-999.904 2.87367 0
-998.126 3.02558 0
-996.349 3.15849 0
-994.575 3.27289 0
-992.801 3.36932 0
-991.03 3.44799 0
-989.261 3.50955 0
-987.493 3.55445 0
-985.729 3.58292 0
-983.968 3.59595 0
-982.209 3.59391 0
-980.454 3.57707 0
-978.701 3.54572 0
-976.952 3.50064 0
-975.206 3.44266 0
-973.464 3.37191 0
-971.725 3.28912 0
-969.991 3.19513 0
-968.26 3.08947 0
-966.533 2.97329 0
-964.81 2.84759 0
-963.09 2.71216 0
-961.374 2.56797 0
-959.664 2.41518 0
-957.956 2.25477 0
-956.253 2.08715 0
-954.554 1.91317 0
-952.859 1.73344 0
-951.167 1.54752 0
-949.48 1.35663 0
-947.797 1.16095 0
-946.117 0.961096 0
-944.442 0.758496 0
-942.77 0.552501 0
-941.102 0.343931 0
-939.437 0.133616 0
-937.776 -0.0789106 0
-936.119 -0.29268 0
-934.464 -0.507289 0
-932.813 -0.722326 0
-931.166 -0.937096 0
-929.521 -1.15218 0
-927.88 -1.3663 0
-926.241 -1.5786 0
-924.606 -1.79007 0
-922.973 -1.99978 0
-921.342 -2.20688 0
-919.715 -2.41162 0
-918.091 -2.61499 0
-916.468 -2.81366 0
-914.848 -3.01025 0
-913.228 -3.20269 0
-911.612 -3.39208 0
-909.998 -3.57754 0
-908.385 -3.75795 0
-906.774 -3.935 0
-905.165 -4.10656 0
-903.557 -4.27426 0
-901.951 -4.43794 0
-900.345 -4.59547 0
-898.741 -4.74747 0
-897.139 -4.89528 0
-895.536 -5.03855 0
-893.936 -5.17424 0
-892.336 -5.30563 0
-890.737 -5.43167 0
-889.138 -5.55211 0
-887.54 -5.66651 0
-885.943 -5.77638 0
-884.346 -5.87961 0
-882.749 -5.97779 0
-881.152 -6.06983 0
-879.556 -6.15614 0
-877.96 -6.23751 0
-876.363 -6.31363 0
-874.768 -6.38305 0
-873.172 -6.44715 0
-871.575 -6.50606 0
-869.978 -6.55882 0
-868.381 -6.60699 0
-866.784 -6.64892 0
-865.186 -6.68746 0
-863.588 -6.7207 0
-861.988 -6.74821 0
-860.389 -6.77046 0
-858.79 -6.78872 0
-857.189 -6.80141 0
-855.588 -6.80973 0
-853.986 -6.81374 0
-852.383 -6.81326 0
-850.78 -6.80903 0
-849.175 -6.80015 0
-847.57 -6.78695 0
-845.965 -6.77048 0
-844.357 -6.75115 0
-842.749 -6.7267 0
-841.14 -6.69904 0
-839.53 -6.66774 0
-837.92 -6.63495 0
-836.308 -6.59839 0
-834.695 -6.55922 0
-833.082 -6.51617 0
-831.466 -6.47069 0
-829.851 -6.42188 0
-828.234 -6.37199 0
-826.617 -6.32002 0
-824.997 -6.26631 0
-823.378 -6.21038 0
-821.757 -6.15218 0
-820.135 -6.09281 0
-818.511 -6.03094 0
-816.888 -5.96842 0
-815.262 -5.9035 0
-813.637 -5.839 0
-812.01 -5.77371 0
-810.383 -5.70694 0
-808.754 -5.63749 0
-807.123 -5.57004 0
-805.493 -5.50114 0
-803.862 -5.43151 0
-802.23 -5.36149 0
-800.596 -5.2927 0
-798.962 -5.22199 0
-797.327 -5.15342 0
-795.691 -5.08308 0
-794.054 -5.01472 0
-792.417 -4.94546 0
-790.778 -4.87586 0
-789.139 -4.80776 0
-787.501 -4.73952 0
-785.86 -4.673 0
-784.219 -4.60635 0
-782.578 -4.54187 0
-780.936 -4.4766 0
-779.294 -4.41194 0
-777.651 -4.34987 0
-776.006 -4.2879 0
-774.362 -4.22752 0
-772.718 -4.16893 0
-771.072 -4.11088 0
-769.426 -4.05458 0
-767.78 -3.99798 0
-766.134 -3.94428 0
-764.486 -3.89109 0
-762.838 -3.84001 0
-761.191 -3.78993 0
-759.543 -3.74228 0
-757.895 -3.69571 0
-756.247 -3.65043 0
-754.598 -3.60774 0
-752.95 -3.5646 0
-751.301 -3.52407 0
-749.651 -3.48613 0
-748.002 -3.44955 0
-746.353 -3.41397 0
-744.703 -3.37864 0
-743.055 -3.34766 0
-741.404 -3.3173 0
-739.754 -3.28664 0
-738.105 -3.25979 0
-736.455 -3.23428 0
-734.806 -3.21143 0
-733.156 -3.18795 0
-731.507 -3.16613 0
-729.857 -3.14837 0
-728.208 -3.13102 0
-726.557 -3.11462 0
-724.907 -3.1025 0
-723.258 -3.08908 0
-721.61 -3.07673 0
-719.96 -3.06758 0
-718.311 -3.0602 0
-716.662 -3.05436 0
-715.013 -3.0479 0
-713.366 -3.04501 0
-711.719 -3.04236 0
-710.071 -3.04005 0
-708.423 -3.04072 0
-706.775 -3.04333 0
-705.13 -3.04452 0
-703.482 -3.04983 0
-701.834 -3.05503 0
-700.189 -3.06189 0
-698.542 -3.06888 0
-696.897 -3.07911 0
-695.25 -3.08874 0
-693.605 -3.09858 0
-691.96 -3.11107 0
-690.315 -3.12341 0
-688.669 -3.13786 0
-687.026 -3.15224 0
-685.382 -3.1673 0
-683.738 -3.18324 0
-682.094 -3.19911 0
-680.451 -3.21713 0
-678.809 -3.23452 0
-677.167 -3.25403 0
-675.523 -3.27434 0
-673.88 -3.29574 0
-672.238 -3.31581 0
-670.598 -3.33706 0
-668.957 -3.35904 0
-667.318 -3.37957 0
-665.678 -3.4026 0
-664.037 -3.4269 0
-662.396 -3.44923 0
-660.757 -3.47207 0
-659.118 -3.49869 0
-657.479 -3.52126 0
-655.84 -3.54593 0
-654.202 -3.57089 0
-652.563 -3.59587 0
-650.925 -3.61958 0
-649.288 -3.6457 0
-647.649 -3.67161 0
-646.012 -3.69569 0
-644.376 -3.72063 0
-642.739 -3.74553 0
-641.102 -3.76926 0
-639.465 -3.79554 0
-637.829 -3.81998 0
-636.194 -3.84469 0
-634.559 -3.86697 0
-632.922 -3.89222 0
-631.287 -3.91789 0
-629.652 -3.9415 0
-628.017 -3.9623 0
-626.381 -3.9868 0
-624.746 -4.00921 0
-623.111 -4.0325 0
-621.476 -4.05408 0
-619.841 -4.07591 0
-618.206 -4.09793 0
-616.571 -4.11888 0
-614.938 -4.13847 0
-613.304 -4.15916 0
-611.671 -4.1795 0
-610.039 -4.20092 0
-608.406 -4.2206 0
-606.773 -4.23885 0
-605.137 -4.25511 0
-603.504 -4.2747 0
-601.869 -4.29296 0
-600.237 -4.31258 0
-598.604 -4.32733 0
-596.971 -4.34119 0
-595.338 -4.3589 0
-593.704 -4.37338 0
-592.068 -4.3881 0
-590.436 -4.40228 0
-588.803 -4.41785 0
-587.17 -4.42974 0
-585.537 -4.44294 0
-583.904 -4.45405 0
-582.271 -4.46549 0
-580.638 -4.47756 0
-579.004 -4.49116 0
-577.371 -4.50223 0
-575.739 -4.51108 0
-574.105 -4.52079 0
-572.472 -4.52919 0
-570.839 -4.53908 0
-569.205 -4.54601 0
-567.572 -4.55322 0
-565.938 -4.56081 0
-564.305 -4.56824 0
-562.671 -4.57667 0
-561.038 -4.58294 0
-559.403 -4.5886 0
-557.771 -4.59311 0
-556.137 -4.59869 0
-554.504 -4.60328 0
-552.872 -4.60764 0
-551.238 -4.61317 0
-549.606 -4.61403 0
-547.973 -4.61627 0
-546.338 -4.61968 0
-544.703 -4.62319 0
-543.07 -4.62607 0
-541.436 -4.62739 0
-539.802 -4.62869 0
-538.168 -4.6294 0
-536.534 -4.62965 0
-534.9 -4.62936 0
-533.265 -4.62942 0
-531.63 -4.62946 0
-529.996 -4.63072 0
-528.361 -4.62924 0
-526.727 -4.62701 0
-525.092 -4.62812 0
-523.456 -4.62566 0
-521.824 -4.62606 0
-520.189 -4.62095 0
-518.553 -4.62168 0
-516.917 -4.61716 0
-515.28 -4.61534 0
-513.645 -4.61271 0
-512.01 -4.61075 0
-510.376 -4.60952 0
-508.741 -4.6061 0
-507.104 -4.60486 0
-505.471 -4.6034 0
-503.834 -4.59976 0
-502.199 -4.59479 0
-500.563 -4.59361 0
-498.929 -4.59224 0
-497.291 -4.58584 0
-495.652 -4.58227 0
-494.014 -4.57828 0
-492.381 -4.57536 0
-490.745 -4.57133 0
-489.108 -4.56893 0
-487.472 -4.56564 0
-485.837 -4.55927 0
-484.198 -4.55821 0
-482.562 -4.5571 0
-480.924 -4.55446 0
-479.287 -4.55136 0
-477.651 -4.54721 0
-476.014 -4.5442 0
-474.373 -4.54236 0
-472.738 -4.5385 0
-471.101 -4.53418 0
-469.465 -4.53569 0
-467.829 -4.53442 0
-466.192 -4.53033 0
-464.555 -4.52619 0
-462.916 -4.52135 0
-461.28 -4.52367 0
-459.644 -4.51841 0
-458.006 -4.51923 0
-456.37 -4.5149 0
-454.734 -4.51158 0
-453.098 -4.50862 0
-451.46 -4.50641 0
-449.823 -4.50732 0
-448.186 -4.5053 0
-446.548 -4.50533 0
-444.91 -4.50349 0
-443.274 -4.50416 0
-441.638 -4.50394 0
-440 -4.50159 0
-438.362 -4.50056 0
-436.724 -4.49984 0
-435.087 -4.50081 0
-433.449 -4.50109 0
-431.808 -4.50259 0
-430.172 -4.50002 0
-428.536 -4.50087 0
-426.9 -4.50063 0
-425.264 -4.50283 0
-423.627 -4.50361 0
-421.99 -4.5076 0
-420.352 -4.50482 0
-418.714 -4.5063 0
-417.073 -4.50691 0
-415.435 -4.51164 0
-413.798 -4.51093 0
-412.162 -4.51138 0
-410.529 -4.51236 0
-408.891 -4.51578 0
-407.249 -4.51437 0
-405.613 -4.51752 0
-403.975 -4.52119 0
-402.337 -4.52488 0
-400.701 -4.52687 0
-399.064 -4.53282 0
-397.425 -4.53308 0
-395.787 -4.53912 0
-394.15 -4.53852 0
-392.513 -4.54346 0
-390.875 -4.54665 0
-389.239 -4.5456 0
-387.6 -4.54856 0
-385.965 -4.55289 0
-384.331 -4.55853 0
-382.693 -4.56314 0
-381.057 -4.56658 0
-379.419 -4.57063 0
-377.782 -4.57277 0
-376.146 -4.57638 0
-374.508 -4.58052 0
-372.871 -4.58585 0
-371.233 -4.59136 0
-369.595 -4.59695 0
-367.96 -4.60215 0
-366.325 -4.60657 0
-364.686 -4.61071 0
-363.05 -4.61677 0
-361.413 -4.62162 0
-359.775 -4.62727 0
-358.138 -4.62902 0
-356.504 -4.6332 0
-354.869 -4.63974 0
-353.231 -4.64575 0
-351.595 -4.65175 0
-349.958 -4.65557 0
-348.322 -4.65936 0
-346.686 -4.66432 0
-345.049 -4.67131 0
-343.41 -4.67546 0
-341.773 -4.68047 0
-340.141 -4.68759 0
-338.502 -4.69216 0
-336.865 -4.69681 0
-335.228 -4.70148 0
-333.595 -4.71032 0
-331.957 -4.71243 0
-330.32 -4.72271 0
-328.685 -4.72421 0
-327.05 -4.72867 0
-325.414 -4.73417 0
-323.778 -4.74049 0
-322.142 -4.74473 0
-320.507 -4.75165 0
-318.871 -4.75569 0
-317.237 -4.75892 0
-315.601 -4.76521 0
-313.966 -4.77245 0
-312.327 -4.77735 0
-310.691 -4.78053 0
-309.057 -4.78384 0
-307.422 -4.79352 0
-305.786 -4.79893 0
-304.151 -4.79879 0
-302.515 -4.80422 0
-300.881 -4.8073 0
-299.245 -4.81279 0
-297.609 -4.81681 0
-295.974 -4.8218 0
-294.337 -4.83048 0
-292.705 -4.83085 0
-291.068 -4.83865 0
-289.433 -4.84335 0
-287.798 -4.84741 0
-286.163 -4.85195 0
-284.525 -4.85534 0
-282.89 -4.85987 0
-281.256 -4.8626 0
-279.619 -4.86641 0
-277.985 -4.86895 0
-276.352 -4.86906 0
-274.717 -4.87479 0
-273.08 -4.88077 0
-271.445 -4.88212 0
-269.809 -4.88621 0
-268.175 -4.89275 0
-266.539 -4.89759 0
-264.905 -4.89576 0
-263.267 -4.90154 0
-261.631 -4.90529 0
-259.998 -4.90802 0
-258.364 -4.91037 0
-256.729 -4.91292 0
-255.094 -4.91671 0
-253.456 -4.92093 0
-251.823 -4.9214 0
-250.185 -4.92494 0
-248.552 -4.92573 0
-246.917 -4.92996 0
-245.281 -4.93274 0
-243.646 -4.93638 0
-242.011 -4.93998 0
-240.375 -4.94201 0
-238.742 -4.94495 0
-237.109 -4.94716 0
-235.473 -4.9491 0
-233.836 -4.94761 0
-232.199 -4.95086 0
-230.565 -4.95384 0
-228.93 -4.95989 0
-227.296 -4.95754 0
-225.662 -4.96003 0
-224.024 -4.96482 0
-222.392 -4.96739 0
-220.756 -4.96908 0
-219.121 -4.97191 0
-217.484 -4.96979 0
-215.85 -4.97092 0
-214.213 -4.97387 0
-212.577 -4.97108 0
-210.943 -4.97563 0
-209.31 -4.97515 0
-207.673 -4.97319 0
-206.039 -4.9755 0
-204.402 -4.97781 0
-202.768 -4.98104 0
-201.131 -4.98161 0
-199.495 -4.98344 0
-197.86 -4.9838 0
-196.223 -4.98266 0
-194.587 -4.9849 0
-192.953 -4.98467 0
-191.319 -4.98492 0
-189.686 -4.98635 0
-188.047 -4.98471 0
-186.411 -4.98652 0
-184.778 -4.99002 0
-183.142 -4.9899 0
-181.51 -4.99332 0
-179.875 -4.98858 0
-178.237 -4.99122 0
-176.598 -4.98909 0
-174.967 -4.99252 0
-173.333 -4.99293 0
-171.696 -4.99235 0
-170.062 -4.99283 0
-168.426 -4.99789 0
-166.793 -4.99155 0
-165.159 -4.99345 0
-163.522 -4.99453 0
-161.886 -4.99404 0
-160.25 -4.99393 0
-158.616 -4.99301 0
-156.981 -4.9931 0
-155.346 -4.99324 0
-153.71 -4.9958 0
-152.074 -4.99274 0
-150.435 -4.99178 0
-148.802 -4.99237 0
-147.167 -4.99159 0
-145.533 -4.98893 0
-143.899 -4.98735 0
-142.263 -4.99 0
-140.626 -4.98997 0
-138.989 -4.99085 0
-137.354 -4.98678 0
-135.719 -4.98601 0
-134.084 -4.98866 0
-132.45 -4.98989 0
-130.814 -4.9885 0
-129.178 -4.98755 0
-127.546 -4.98437 0
-125.908 -4.98691 0
-124.273 -4.98703 0
-122.639 -4.98628 0
-121 -4.98841 0
-119.369 -4.99018 0
-117.736 -4.98992 0
-116.098 -4.98879 0
-114.463 -4.98758 0
-112.83 -4.98701 0
-111.194 -4.98673 0
-109.556 -4.98829 0
-107.918 -4.98824 0
-106.284 -4.98629 0
-104.653 -4.98344 0
-103.017 -4.98645 0
-101.383 -4.98573 0
-99.7469 -4.98292 0
-98.1139 -4.98627 0
-96.4762 -4.98517 0
-94.8409 -4.98259 0
-93.207 -4.98199 0
-91.5715 -4.98473 0
-89.936 -4.98405 0
-88.2988 -4.98354 0
-86.663 -4.98551 0
-85.0257 -4.98278 0
-83.3909 -4.98279 0
-81.7547 -4.97891 0
-80.1213 -4.9819 0
-78.4873 -4.98251 0
-76.8545 -4.98143 0
-75.2188 -4.98205 0
-73.5809 -4.98221 0
-71.9451 -4.98214 0
-70.3126 -4.983 0
-68.6768 -4.98164 0
-67.0384 -4.98006 0
-65.4016 -4.98135 0
-63.7696 -4.97973 0
-62.1351 -4.97946 0
-60.5013 -4.98247 0
-58.8648 -4.9834 0
-57.2299 -4.98356 0
-55.5944 -4.98066 0
-53.9571 -4.98137 0
-52.3221 -4.98099 0
-50.688 -4.98245 0
-49.053 -4.98001 0
-47.4175 -4.9789 0
-45.7824 -4.97778 0
-44.1482 -4.97835 0
-42.5153 -4.97671 0
-40.8773 -4.97261 0
-39.2404 -4.97542 0
-37.606 -4.97763 0
-35.9719 -4.97581 0
-34.3365 -4.97899 0
-32.7011 -4.97786 0
-31.0668 -4.97673 0
-29.4325 -4.97416 0
-27.7964 -4.97306 0
-26.161 -4.97283 0
-24.528 -4.97693 0
-22.8906 -4.97366 0
-21.256 -4.97532 0
-19.6203 -4.97607 0
-17.9853 -4.97095 0
-16.3511 -4.97157 0
-14.7129 -4.97463 0
-13.0778 -4.97309 0
-11.445 -4.97169 0
-9.8097 -4.97262 0
-8.17705 -4.97191 0
-6.53869 -4.96941 0
-4.9046 -4.97271 0
-3.27007 -4.97261 0
-1.63643 -4.97368 0
0 -4.97673 0
-1101.34 76.0736 0
-1101.34 68.6472 0
-1101.32 61.4303 0
-1101.27 54.5125 0
-1101.22 47.9193 0
-1101.2 41.5968 0
-1101.17 35.494 0
-1101.09 29.6622 0
-1100.96 24.1785 0
-1100.81 19.0743 0
-1100.65 14.3517 0
-1100.46 10.0059 0
-1100.25 6.02897 0
-1100.01 2.40861 0
-1099.75 -0.871708 0
-1099.44 -3.83322 0
-1099.1 -6.49656 0
-1098.72 -8.88492 0
-1098.29 -11.0198 0
-1097.81 -12.9212 0
-1097.29 -14.6095 0
-1096.73 -16.1017 0
-1096.12 -17.4145 0
-1095.47 -18.5621 0
-1094.77 -19.5589 0
-1094.04 -20.4155 0
-1093.27 -21.1436 0
-1092.47 -21.7525 0
-1091.63 -22.2502 0
-1090.76 -22.645 0
-1089.85 -22.9443 0
-1088.92 -23.1546 0
-1087.96 -23.2809 0
-1086.97 -23.329 0
-1085.95 -23.304 0
-1084.9 -23.2099 0
-1083.83 -23.0513 0
-1082.73 -22.8322 0
-1081.6 -22.5569 0
-1080.45 -22.2295 0
-1079.27 -21.8531 0
-1078.07 -21.4322 0
-1076.84 -20.9695 0
-1075.59 -20.4685 0
-1074.31 -19.9339 0
-1073.01 -19.3684 0
-1071.69 -18.7746 0
-1070.34 -18.1555 0
-1068.98 -17.5153 0
-1067.59 -16.8563 0
-1066.18 -16.1813 0
-1064.75 -15.4931 0
-1063.3 -14.7943 0
-1061.83 -14.0873 0
-1060.35 -13.3742 0
-1058.84 -12.6581 0
-1057.32 -11.9398 0
-1055.78 -11.223 0
-1054.23 -10.508 0
-1052.66 -9.79714 0
-1051.07 -9.09243 0
-1049.48 -8.39547 0
-1047.87 -7.70722 0
-1046.24 -7.02919 0
-1044.61 -6.363 0
-1042.96 -5.70951 0
-1041.31 -5.06993 0
-1039.64 -4.44507 0
-1037.96 -3.83656 0
-1036.28 -3.24371 0
-1034.58 -2.66885 0
-1032.88 -2.11165 0
-1031.17 -1.57322 0
-1029.46 -1.05375 0
-1027.74 -0.553886 0
-1026.01 -0.0735668 0
-1024.28 0.385815 0
-1022.54 0.824787 0
-1020.8 1.24328 0
-1019.06 1.64051 0
-1017.31 2.01633 0
-1015.56 2.37144 0
-1013.81 2.70525 0
-1012.06 3.01835 0
-1010.3 3.31057 0
-1008.54 3.58203 0
-1006.78 3.83277 0
-1005.02 4.06282 0
-1003.26 4.27293 0
-1001.5 4.46265 0
-999.745 4.63247 0
-997.987 4.78331 0
-996.229 4.91518 0
-994.472 5.02795 0
-992.716 5.12243 0
-990.962 5.19947 0
-989.21 5.25933 0
-987.459 5.30208 0
-985.71 5.32804 0
-983.964 5.33836 0
-982.221 5.33333 0
-980.479 5.31368 0
-978.741 5.27992 0
-977.004 5.23169 0
-975.271 5.16997 0
-973.541 5.0962 0
-971.815 5.00998 0
-970.091 4.91195 0
-968.371 4.80302 0
-966.654 4.68354 0
-964.94 4.55407 0
-963.229 4.41501 0
-961.523 4.26691 0
-959.82 4.11044 0
-958.119 3.94648 0
-956.423 3.7754 0
-954.73 3.59766 0
-953.041 3.41395 0
-951.355 3.22449 0
-949.672 3.02975 0
-947.993 2.83066 0
-946.317 2.62742 0
-944.645 2.42084 0
-942.976 2.21151 0
-941.31 1.99951 0
-939.647 1.78557 0
-937.988 1.56972 0
-936.331 1.35304 0
-934.678 1.13522 0
-933.027 0.917075 0
-931.379 0.699197 0
-929.734 0.481335 0
-928.091 0.264775 0
-926.452 0.0491969 0
-924.814 -0.164743 0
-923.18 -0.376664 0
-921.548 -0.586477 0
-919.917 -0.794312 0
-918.29 -0.999191 0
-916.664 -1.2003 0
-915.04 -1.39837 0
-913.418 -1.59277 0
-911.798 -1.78414 0
-910.18 -1.97106 0
-908.563 -2.15331 0
-906.947 -2.33173 0
-905.333 -2.5052 0
-903.721 -2.67449 0
-902.109 -2.83873 0
-900.499 -2.99763 0
-898.891 -3.15093 0
-897.282 -3.29979 0
-895.675 -3.44346 0
-894.069 -3.58074 0
-892.464 -3.71326 0
-890.859 -3.83931 0
-889.255 -3.96038 0
-887.651 -4.07542 0
-886.049 -4.18518 0
-884.446 -4.28976 0
-882.843 -4.38746 0
-881.241 -4.4801 0
-879.639 -4.56655 0
-878.038 -4.64793 0
-876.436 -4.7238 0
-874.834 -4.79321 0
-873.232 -4.85747 0
-871.63 -4.91573 0
-870.029 -4.96898 0
-868.426 -5.01661 0
-866.824 -5.05815 0
-865.221 -5.09616 0
-863.618 -5.12898 0
-862.014 -5.15584 0
-860.41 -5.17798 0
-858.805 -5.19491 0
-857.199 -5.20782 0
-855.594 -5.21555 0
-853.987 -5.21877 0
-852.38 -5.21771 0
-850.773 -5.21227 0
-849.165 -5.20285 0
-847.556 -5.18907 0
-845.946 -5.17184 0
-844.335 -5.15031 0
-842.724 -5.12608 0
-841.111 -5.09717 0
-839.498 -5.06582 0
-837.885 -5.03151 0
-836.27 -4.99442 0
-834.655 -4.95375 0
-833.038 -4.90984 0
-831.421 -4.86367 0
-829.802 -4.81394 0
-828.183 -4.76307 0
-826.563 -4.71 0
-824.943 -4.65601 0
-823.321 -4.59827 0
-821.698 -4.53902 0
-820.075 -4.47862 0
-818.45 -4.41607 0
-816.824 -4.35238 0
-815.198 -4.28737 0
-813.572 -4.22141 0
-811.944 -4.15571 0
-810.315 -4.08714 0
-808.685 -4.01842 0
-807.056 -3.94903 0
-805.424 -3.87911 0
-803.792 -3.80924 0
-802.16 -3.73817 0
-800.527 -3.66812 0
-798.893 -3.59722 0
-797.258 -3.52737 0
-795.622 -3.45656 0
-793.985 -3.38676 0
-792.348 -3.31684 0
-790.711 -3.24651 0
-789.072 -3.17793 0
-787.433 -3.10966 0
-785.794 -3.04203 0
-784.154 -2.97517 0
-782.513 -2.90997 0
-780.872 -2.84407 0
-779.23 -2.77935 0
-777.588 -2.71579 0
-775.945 -2.65389 0
-774.302 -2.59306 0
-772.658 -2.53411 0
-771.015 -2.47482 0
-769.37 -2.41844 0
-767.726 -2.36229 0
-766.081 -2.30717 0
-764.435 -2.25432 0
-762.789 -2.20352 0
-761.143 -2.15222 0
-759.496 -2.10405 0
-757.85 -2.058 0
-756.203 -2.01268 0
-754.555 -1.96897 0
-752.908 -1.92618 0
-751.261 -1.88545 0
-749.614 -1.84688 0
-747.966 -1.81024 0
-746.318 -1.77477 0
-744.671 -1.74122 0
-743.023 -1.70805 0
-741.375 -1.67698 0
-739.727 -1.64677 0
-738.08 -1.61996 0
-736.432 -1.59512 0
-734.784 -1.5707 0
-733.134 -1.54771 0
-731.486 -1.52785 0
-729.839 -1.50966 0
-728.19 -1.49132 0
-726.543 -1.47538 0
-724.895 -1.462 0
-723.247 -1.44958 0
-721.598 -1.43788 0
-719.952 -1.42845 0
-718.305 -1.42232 0
-716.657 -1.41469 0
-715.01 -1.40909 0
-713.362 -1.40702 0
-711.716 -1.40529 0
-710.07 -1.4031 0
-708.424 -1.40364 0
-706.778 -1.40602 0
-705.132 -1.40853 0
-703.487 -1.41159 0
-701.841 -1.41774 0
-700.196 -1.42505 0
-698.551 -1.43258 0
-696.906 -1.44293 0
-695.261 -1.45266 0
-693.616 -1.46394 0
-691.972 -1.47518 0
-690.328 -1.48802 0
-688.685 -1.50255 0
-687.041 -1.51787 0
-685.398 -1.53286 0
-683.754 -1.54896 0
-682.112 -1.56548 0
-680.47 -1.5836 0
-678.827 -1.60143 0
-677.185 -1.62119 0
-675.544 -1.64212 0
-673.902 -1.66315 0
-672.26 -1.68382 0
-670.62 -1.70468 0
-668.979 -1.72683 0
-667.339 -1.74928 0
-665.7 -1.77203 0
-664.061 -1.79631 0
-662.42 -1.81915 0
-660.781 -1.84329 0
-659.143 -1.86732 0
-657.504 -1.89166 0
-655.865 -1.91633 0
-654.227 -1.94122 0
-652.588 -1.96781 0
-650.951 -1.99279 0
-649.313 -2.01753 0
-647.675 -2.04244 0
-646.037 -2.06696 0
-644.399 -2.09296 0
-642.762 -2.11701 0
-641.126 -2.14257 0
-639.49 -2.16805 0
-637.855 -2.19262 0
-636.217 -2.2174 0
-634.582 -2.24075 0
-632.946 -2.26614 0
-631.31 -2.29149 0
-629.674 -2.31531 0
-628.039 -2.33671 0
-626.404 -2.36036 0
-624.769 -2.38389 0
-623.133 -2.4061 0
-621.498 -2.42939 0
-619.862 -2.45075 0
-618.228 -2.47227 0
-616.593 -2.49417 0
-614.959 -2.51497 0
-613.324 -2.53445 0
-611.69 -2.5546 0
-610.056 -2.57558 0
-608.423 -2.59519 0
-606.788 -2.6128 0
-605.154 -2.63127 0
-603.52 -2.64978 0
-601.886 -2.66837 0
-600.253 -2.68701 0
-598.619 -2.70203 0
-596.986 -2.7185 0
-595.352 -2.73368 0
-593.718 -2.75015 0
-592.083 -2.76473 0
-590.45 -2.77913 0
-588.816 -2.79275 0
-587.183 -2.80607 0
-585.549 -2.81922 0
-583.916 -2.83005 0
-582.282 -2.84087 0
-580.649 -2.85353 0
-579.015 -2.86626 0
-577.382 -2.87658 0
-575.748 -2.88671 0
-574.114 -2.89616 0
-572.48 -2.90483 0
-570.846 -2.91428 0
-569.213 -2.92261 0
-567.58 -2.93003 0
-565.945 -2.93673 0
-564.312 -2.94549 0
-562.679 -2.95051 0
-561.045 -2.95657 0
-559.41 -2.96255 0
-557.776 -2.96907 0
-556.142 -2.97392 0
-554.509 -2.9799 0
-552.874 -2.98459 0
-551.241 -2.9881 0
-549.607 -2.99058 0
-547.974 -2.99142 0
-546.34 -2.99531 0
-544.705 -2.99776 0
-543.071 -3.00111 0
-541.438 -3.00262 0
-539.803 -3.00426 0
-538.17 -3.00441 0
-536.535 -3.00449 0
-534.901 -3.005 0
-533.265 -3.00356 0
-531.63 -3.00424 0
-529.994 -3.00471 0
-528.36 -3.00423 0
-526.726 -3.00269 0
-525.091 -3.00187 0
-523.456 -3.00007 0
-521.821 -3.0006 0
-520.186 -2.99664 0
-518.55 -2.99344 0
-516.914 -2.99158 0
-515.279 -2.98926 0
-513.644 -2.98652 0
-512.009 -2.98443 0
-510.374 -2.98353 0
-508.738 -2.98125 0
-507.102 -2.97858 0
-505.466 -2.97694 0
-503.83 -2.97404 0
-502.195 -2.96961 0
-500.559 -2.96657 0
-498.924 -2.96347 0
-497.286 -2.95957 0
-495.65 -2.9539 0
-494.015 -2.95183 0
-492.378 -2.94793 0
-490.743 -2.94565 0
-489.105 -2.9424 0
-487.47 -2.93819 0
-485.833 -2.93391 0
-484.196 -2.92982 0
-482.559 -2.9292 0
-480.923 -2.9258 0
-479.284 -2.92191 0
-477.649 -2.91987 0
-476.011 -2.91584 0
-474.374 -2.91215 0
-472.736 -2.91132 0
-471.1 -2.90749 0
-469.465 -2.90711 0
-467.827 -2.90565 0
-466.188 -2.90076 0
-464.552 -2.89753 0
-462.915 -2.89518 0
-461.279 -2.89361 0
-459.64 -2.88953 0
-458.005 -2.89015 0
-456.368 -2.88801 0
-454.732 -2.88463 0
-453.095 -2.88097 0
-451.458 -2.87913 0
-449.822 -2.87857 0
-448.186 -2.87794 0
-446.547 -2.87627 0
-444.91 -2.87619 0
-443.274 -2.8748 0
-441.636 -2.8754 0
-439.998 -2.8747 0
-438.361 -2.87142 0
-436.723 -2.87113 0
-435.087 -2.87223 0
-433.451 -2.87113 0
-431.809 -2.87284 0
-430.172 -2.87441 0
-428.538 -2.87496 0
-426.901 -2.87338 0
-425.264 -2.87526 0
-423.626 -2.87785 0
-421.99 -2.87762 0
-420.352 -2.87674 0
-418.714 -2.8784 0
-417.077 -2.88118 0
-415.439 -2.88141 0
-413.802 -2.88253 0
-412.165 -2.88551 0
-410.528 -2.88471 0
-408.89 -2.88605 0
-407.253 -2.88772 0
-405.614 -2.88885 0
-403.978 -2.89198 0
-402.341 -2.89757 0
-400.703 -2.89994 0
-399.066 -2.90339 0
-397.429 -2.90472 0
-395.79 -2.90936 0
-394.152 -2.91043 0
-392.516 -2.91409 0
-390.879 -2.91917 0
-389.242 -2.919 0
-387.607 -2.91989 0
-385.97 -2.92497 0
-384.333 -2.93107 0
-382.695 -2.93691 0
-381.059 -2.94089 0
-379.423 -2.94323 0
-377.788 -2.9477 0
-376.151 -2.9481 0
-374.514 -2.95221 0
-372.876 -2.95731 0
-371.24 -2.96377 0
-369.603 -2.96848 0
-367.965 -2.97434 0
-366.329 -2.9805 0
-364.692 -2.98466 0
-363.056 -2.98921 0
-361.418 -2.99214 0
-359.783 -2.99914 0
-358.145 -3.00368 0
-356.51 -3.00853 0
-354.875 -3.01277 0
-353.238 -3.01848 0
-351.599 -3.02448 0
-349.963 -3.02752 0
-348.325 -3.03316 0
-346.689 -3.03835 0
-345.053 -3.04456 0
-343.418 -3.04767 0
-341.781 -3.05229 0
-340.144 -3.06107 0
-338.508 -3.06349 0
-336.874 -3.06991 0
-335.237 -3.07577 0
-333.599 -3.08198 0
-331.963 -3.08589 0
-330.327 -3.09282 0
-328.69 -3.09862 0
-327.053 -3.10193 0
-325.417 -3.108 0
-323.782 -3.11382 0
-322.147 -3.12083 0
-320.51 -3.12513 0
-318.874 -3.12897 0
-317.241 -3.13456 0
-315.606 -3.13942 0
-313.969 -3.14529 0
-312.334 -3.1526 0
-310.699 -3.15588 0
-309.066 -3.15859 0
-307.429 -3.16556 0
-305.791 -3.1712 0
-304.154 -3.17416 0
-302.52 -3.17877 0
-300.885 -3.183 0
-299.251 -3.18404 0
-297.615 -3.19183 0
-295.98 -3.19621 0
-294.344 -3.20121 0
-292.708 -3.20647 0
-291.073 -3.21144 0
-289.438 -3.21686 0
-287.802 -3.22113 0
-286.166 -3.22432 0
-284.529 -3.22718 0
-282.892 -3.23296 0
-281.259 -3.23651 0
-279.624 -3.2413 0
-277.99 -3.24237 0
-276.354 -3.2461 0
-274.719 -3.24991 0
-273.083 -3.25334 0
-271.446 -3.25851 0
-269.812 -3.26142 0
-268.18 -3.26683 0
-266.544 -3.27033 0
-264.908 -3.27127 0
-263.272 -3.27308 0
-261.635 -3.27843 0
-260 -3.283 0
-258.365 -3.28482 0
-256.731 -3.28854 0
-255.094 -3.28902 0
-253.459 -3.29348 0
-251.824 -3.29591 0
-250.188 -3.2989 0
-248.557 -3.30148 0
-246.92 -3.30375 0
-245.287 -3.30724 0
-243.65 -3.30976 0
-242.014 -3.3152 0
-240.38 -3.31541 0
-238.745 -3.31781 0
-237.107 -3.32121 0
-235.473 -3.32413 0
-233.838 -3.32239 0
-232.205 -3.32537 0
-230.569 -3.32888 0
-228.935 -3.33066 0
-227.298 -3.33284 0
-225.662 -3.33463 0
-224.027 -3.33726 0
-222.392 -3.34137 0
-220.757 -3.34397 0
-219.121 -3.34271 0
-217.486 -3.34445 0
-215.85 -3.34224 0
-214.213 -3.34601 0
-212.578 -3.34784 0
-210.944 -3.3494 0
-209.31 -3.34984 0
-207.675 -3.3495 0
-206.04 -3.35095 0
-204.405 -3.35147 0
-202.768 -3.35393 0
-201.133 -3.35335 0
-199.497 -3.35785 0
-197.861 -3.35667 0
-196.227 -3.35833 0
-194.591 -3.35849 0
-192.953 -3.35872 0
-191.319 -3.3599 0
-189.686 -3.3585 0
-188.049 -3.36071 0
-186.416 -3.36037 0
-184.778 -3.3615 0
-183.143 -3.36529 0
-181.507 -3.36647 0
-179.874 -3.36257 0
-178.238 -3.3628 0
-176.603 -3.36299 0
-174.968 -3.36604 0
-173.333 -3.36568 0
-171.696 -3.36811 0
-170.061 -3.36758 0
-168.428 -3.36914 0
-166.792 -3.36729 0
-165.158 -3.36671 0
-163.522 -3.36659 0
-161.888 -3.3679 0
-160.253 -3.3677 0
-158.618 -3.36577 0
-156.985 -3.36467 0
-155.348 -3.36628 0
-153.71 -3.36591 0
-152.073 -3.36565 0
-150.438 -3.36647 0
-148.803 -3.36621 0
-147.167 -3.36474 0
-145.532 -3.36482 0
-143.897 -3.36214 0
-142.263 -3.36446 0
-140.626 -3.36415 0
-138.991 -3.36198 0
-137.355 -3.36017 0
-135.721 -3.36176 0
-134.085 -3.3611 0
-132.449 -3.36286 0
-130.814 -3.36148 0
-129.177 -3.36185 0
-127.543 -3.36043 0
-125.909 -3.36157 0
-124.274 -3.35935 0
-122.639 -3.36219 0
-121.003 -3.36424 0
-119.37 -3.36549 0
-117.734 -3.3628 0
-116.099 -3.36461 0
-114.464 -3.36279 0
-112.829 -3.36109 0
-111.193 -3.3618 0
-109.556 -3.35925 0
-107.921 -3.36137 0
-106.285 -3.36016 0
-104.65 -3.35887 0
-103.018 -3.35843 0
-101.382 -3.35817 0
-99.7467 -3.35913 0
-98.1121 -3.3593 0
-96.4758 -3.35881 0
-94.8408 -3.35787 0
-93.2074 -3.35876 0
-91.572 -3.35734 0
-89.9355 -3.35702 0
-88.3004 -3.35647 0
-86.6628 -3.35946 0
-85.027 -3.3576 0
-83.3928 -3.35699 0
-81.7587 -3.35406 0
-80.123 -3.3579 0
-78.4908 -3.3565 0
-76.8552 -3.35432 0
-75.2215 -3.35382 0
-73.5845 -3.35703 0
-71.949 -3.35672 0
-70.3123 -3.35643 0
-68.6741 -3.35418 0
-67.0374 -3.35527 0
-65.4037 -3.356 0
-63.7693 -3.35553 0
-62.1344 -3.3559 0
-60.5011 -3.35604 0
-58.8666 -3.35868 0
-57.2298 -3.35597 0
-55.5929 -3.35441 0
-53.9592 -3.35086 0
-52.3227 -3.35374 0
-50.6867 -3.35562 0
-49.051 -3.35556 0
-47.4188 -3.35411 0
-45.7836 -3.35299 0
-44.1485 -3.35225 0
-42.5104 -3.35046 0
-40.8782 -3.34898 0
-39.245 -3.35151 0
-37.6084 -3.35064 0
-35.9746 -3.35051 0
-34.3383 -3.35244 0
-32.703 -3.34991 0
-31.0673 -3.35181 0
-29.4318 -3.34851 0
-27.7968 -3.34761 0
-26.1606 -3.34617 0
-24.5253 -3.34833 0
-22.89 -3.34989 0
-21.2555 -3.3485 0
-19.6212 -3.35072 0
-17.985 -3.34914 0
-16.3509 -3.3463 0
-14.7162 -3.35046 0
-13.0807 -3.34714 0
-11.4463 -3.34776 0
-9.81218 -3.34729 0
-8.17435 -3.34625 0
-6.53974 -3.34434 0
-4.90587 -3.34647 0
-3.27023 -3.34783 0
-1.63557 -3.34761 0
0 -3.34981 0
-1109.06 76.6165 0
-1108.66 69.0073 0
-1108.39 61.8157 0
-1108.08 54.9096 0
-1107.77 48.2817 0
-1107.46 41.9263 0
-1107.14 35.8532 0
-1106.76 30.0738 0
-1106.31 24.6194 0
-1105.82 19.526 0
-1105.3 14.8094 0
-1104.76 10.4701 0
-1104.19 6.50188 0
-1103.62 2.8933 0
-1103.02 -0.37164 0
-1102.41 -3.31366 0
-1101.77 -5.95391 0
-1101.11 -8.31556 0
-1100.43 -10.4205 0
-1099.73 -12.2914 0
-1099 -13.9473 0
-1098.23 -15.4065 0
-1097.45 -16.6868 0
-1096.63 -17.8019 0
-1095.78 -18.7671 0
-1094.91 -19.593 0
-1094.01 -20.291 0
-1093.09 -20.8709 0
-1092.14 -21.3411 0
-1091.17 -21.7087 0
-1090.17 -21.9815 0
-1089.14 -22.1659 0
-1088.1 -22.267 0
-1087.03 -22.2899 0
-1085.94 -22.2399 0
-1084.82 -22.1211 0
-1083.69 -21.9381 0
-1082.53 -21.6955 0
-1081.35 -21.3965 0
-1080.14 -21.0456 0
-1078.92 -20.6459 0
-1077.67 -20.2019 0
-1076.4 -19.7162 0
-1075.11 -19.1935 0
-1073.8 -18.6368 0
-1072.47 -18.0492 0
-1071.12 -17.4342 0
-1069.76 -16.7947 0
-1068.37 -16.1341 0
-1066.96 -15.4553 0
-1065.54 -14.7613 0
-1064.09 -14.0544 0
-1062.63 -13.3374 0
-1061.16 -12.6128 0
-1059.66 -11.8827 0
-1058.16 -11.1502 0
-1056.63 -10.4163 0
-1055.1 -9.6843 0
-1053.54 -8.95485 0
-1051.98 -8.23011 0
-1050.4 -7.51238 0
-1048.81 -6.80232 0
-1047.21 -6.10199 0
-1045.6 -5.41276 0
-1043.97 -4.73583 0
-1042.34 -4.07181 0
-1040.69 -3.42246 0
-1039.04 -2.78811 0
-1037.38 -2.17092 0
-1035.71 -1.57059 0
-1034.03 -0.988078 0
-1032.35 -0.423847 0
-1030.66 0.121184 0
-1028.96 0.646557 0
-1027.26 1.15216 0
-1025.55 1.63714 0
-1023.84 2.10126 0
-1022.13 2.54422 0
-1020.41 2.96629 0
-1018.68 3.36683 0
-1016.95 3.74577 0
-1015.22 4.10351 0
-1013.49 4.4397 0
-1011.76 4.7546 0
-1010.02 5.04819 0
-1008.28 5.3205 0
-1006.55 5.57225 0
-1004.81 5.80294 0
-1003.07 6.0128 0
-1001.33 6.20261 0
-999.586 6.37203 0
-997.846 6.52224 0
-996.105 6.65332 0
-994.366 6.76515 0
-992.629 6.85868 0
-990.891 6.93439 0
-989.156 6.99246 0
-987.421 7.03334 0
-985.689 7.05752 0
-983.958 7.06563 0
-982.229 7.05845 0
-980.502 7.03659 0
-978.777 7.00003 0
-977.054 6.94926 0
-975.334 6.88518 0
-973.616 6.80817 0