<?xml version="1.0"?>
<VTKFile type="StructuredGrid"  version="0.1" byte_order="LittleEndian" compressor="vtkZLibDataCompressor">
  <StructuredGrid WholeExtent="0 700 0 30 0 0">
    <Piece Extent="0 700 0 30 0 0">
      <PointData Vectors="Velocity">
        <DataArray type="Float32" Name="Velocity" NumberOfComponents="3" format="ascii">
-1091.03 63.4943 0
-1091.22 56.675 0
-1091.47 50.0376 0
-1091.76 43.7015 0
-1092.02 37.7007 0
-1092.22 31.9639 0
-1092.43 26.4328 0
-1092.67 21.1794 0
-1092.93 16.2876 0
-1093.17 11.782 0
-1093.38 7.6593 0
-1093.56 3.9099 0
-1093.71 0.522134 0
-1093.8 -2.51962 0
-1093.84 -5.2349 0
-1093.82 -7.64655 0
-1093.73 -9.77686 0
-1093.56 -11.6489 0
-1093.33 -13.2847 0
-1093.02 -14.7047 0
-1092.65 -15.9284 0
-1092.2 -16.9733 0
-1091.7 -17.8563 0
-1091.13 -18.5921 0
-1090.5 -19.1938 0
-1089.82 -19.6745 0
-1089.09 -20.0444 0
-1088.31 -20.3132 0
-1087.49 -20.4902 0
-1086.62 -20.5831 0
-1085.72 -20.6 0
-1084.77 -20.5461 0
-1083.79 -20.4278 0
-1082.78 -20.2499 0
-1081.73 -20.0179 0
-1080.65 -19.7356 0
-1079.53 -19.4086 0
-1078.39 -19.0396 0
-1077.21 -18.633 0
-1076.01 -18.1922 0
-1074.77 -17.721 0
-1073.51 -17.2225 0
-1072.22 -16.6995 0
-1070.91 -16.1562 0
-1069.57 -15.5949 0
-1068.2 -15.0174 0
-1066.81 -14.4288 0
-1065.4 -13.8302 0
-1063.96 -13.2244 0
-1062.5 -12.614 0
-1061.02 -12.0007 0
-1059.52 -11.3877 0
-1058 -10.7762 0
-1056.46 -10.1681 0
-1054.9 -9.56557 0
-1053.33 -8.96978 0
-1051.74 -8.38299 0
-1050.13 -7.80608 0
-1048.51 -7.24072 0
-1046.88 -6.68779 0
-1045.23 -6.14813 0
-1043.58 -5.6237 0
-1041.91 -5.11504 0
-1040.23 -4.62202 0
-1038.54 -4.14654 0
-1036.84 -3.6888 0
-1035.14 -3.24901 0
-1033.42 -2.82856 0
-1031.7 -2.42736 0
-1029.98 -2.04505 0
-1028.25 -1.68338 0
-1026.51 -1.34102 0
-1024.77 -1.01889 0
-1023.02 -0.716296 0
-1021.28 -0.434278 0
-1019.53 -0.172409 0
-1017.77 0.0691916 0
-1016.02 0.291113 0
-1014.26 0.493595 0
-1012.51 0.676566 0
-1010.75 0.840305 0
-1009 0.9851 0
-1007.24 1.1114 0
-1005.48 1.21976 0
-1003.73 1.31039 0
-1001.98 1.38368 0
-1000.23 1.44015 0
-998.476 1.48007 0
-996.73 1.50448 0
-994.986 1.51317 0
-993.244 1.50751 0
-991.505 1.48736 0
-989.77 1.45364 0
-988.037 1.40659 0
-986.308 1.34724 0
-984.582 1.27586 0
-982.86 1.19369 0
-981.142 1.10021 0
-979.428 0.997123 0
-977.718 0.883829 0
-976.011 0.762146 0
-974.309 0.632322 0
-972.611 0.494434 0
-970.916 0.34938 0
-969.226 0.197436 0
-967.54 0.0396116 0
-965.858 -0.123773 0
-964.181 -0.291275 0
-962.507 -0.462708 0
-960.838 -0.639175 0
-959.172 -0.817968 0
-957.51 -1.00032 0
-955.852 -1.18364 0
-954.198 -1.36983 0
-952.548 -1.55732 0
-950.901 -1.745 0
-949.257 -1.93261 0
-947.617 -2.1214 0
-945.98 -2.30814 0
-944.346 -2.49486 0
-942.715 -2.68037 0
-941.087 -2.86375 0
-939.463 -3.04553 0
-937.84 -3.22471 0
-936.222 -3.40153 0
-934.605 -3.57532 0
-932.991 -3.74552 0
-931.379 -3.91265 0
-929.769 -4.07555 0
-928.161 -4.23459 0
-926.556 -4.38979 0
-924.951 -4.54053 0
-923.349 -4.68734 0
-921.748 -4.82861 0
-920.149 -4.96629 0
-918.551 -5.09792 0
-916.954 -5.22447 0
-915.358 -5.34661 0
-913.763 -5.46295 0
-912.17 -5.57392 0
-910.577 -5.67965 0
-908.984 -5.78017 0
-907.392 -5.87381 0
-905.8 -5.96327 0
-904.209 -6.04673 0
-902.618 -6.12588 0
-901.027 -6.19825 0
-899.437 -6.26601 0
-897.847 -6.32787 0
-896.257 -6.38569 0
-894.666 -6.43692 0
-893.075 -6.48356 0
-891.484 -6.52433 0
-889.893 -6.56118 0
-888.301 -6.59263 0
-886.708 -6.61852 0
-885.115 -6.63985 0
-883.521 -6.65713 0
-881.928 -6.66919 0
-880.333 -6.67752 0
-878.738 -6.68157 0
-877.141 -6.68053 0
-875.544 -6.67581 0
-873.946 -6.6676 0
-872.347 -6.65514 0
-870.747 -6.63944 0
-869.147 -6.62033 0
-867.546 -6.5975 0
-865.943 -6.57204 0
-864.34 -6.54367 0
-862.735 -6.5123 0
-861.13 -6.47654 0
-859.524 -6.43988 0
-857.916 -6.40057 0
-856.308 -6.35907 0
-854.698 -6.31475 0
-853.088 -6.26864 0
-851.476 -6.22098 0
-849.863 -6.17103 0
-848.249 -6.11947 0
-846.633 -6.06762 0
-845.017 -6.014 0
-843.4 -5.95839 0
-841.783 -5.90287 0
-840.164 -5.84605 0
-838.545 -5.78812 0
-836.924 -5.72964 0
-835.301 -5.67042 0
-833.679 -5.61257 0
-832.055 -5.55332 0
-830.431 -5.49309 0
-828.806 -5.43449 0
-827.18 -5.37484 0
-825.553 -5.31548 0
-823.926 -5.25674 0
-822.297 -5.19836 0
-820.667 -5.13946 0
-819.038 -5.08242 0
-817.407 -5.02711 0
-815.775 -4.97035 0
-814.143 -4.91424 0
-812.511 -4.85971 0
-810.878 -4.80665 0
-809.244 -4.75472 0
-807.61 -4.70372 0
-805.974 -4.65424 0
-804.339 -4.60467 0
-802.702 -4.55737 0
-801.066 -4.51103 0
-799.43 -4.46698 0
-797.793 -4.42401 0
-796.156 -4.38069 0
-794.518 -4.33919 0
-792.88 -4.29938 0
-791.242 -4.26371 0
-789.604 -4.22734 0
-787.965 -4.19258 0
-786.327 -4.15952 0
-784.687 -4.12819 0
-783.049 -4.09881 0
-781.409 -4.06951 0
-779.77 -4.04375 0
-778.131 -4.01891 0
-776.491 -3.9936 0
-774.852 -3.97271 0
-773.212 -3.95111 0
-771.572 -3.93231 0
-769.933 -3.91479 0
-768.294 -3.90031 0
-766.654 -3.88541 0
-765.015 -3.87256 0
-763.375 -3.86046 0
-761.736 -3.85189 0
-760.097 -3.84451 0
-758.457 -3.8379 0
-756.818 -3.83168 0
-755.18 -3.82788 0
-753.543 -3.8252 0
-751.904 -3.82403 0
-750.266 -3.82285 0
-748.628 -3.8238 0
-746.991 -3.82679 0
-745.354 -3.82953 0
-743.716 -3.83411 0
-742.08 -3.83893 0
-740.444 -3.84519 0
-738.809 -3.85279 0
-737.173 -3.86138 0
-735.538 -3.87112 0
-733.902 -3.88143 0
-732.267 -3.89287 0
-730.631 -3.90422 0
-728.996 -3.91658 0
-727.362 -3.93055 0
-725.728 -3.94458 0
-724.094 -3.95898 0
-722.461 -3.97346 0
-720.828 -3.98998 0
-719.196 -4.00517 0
-717.564 -4.02251 0
-715.932 -4.03968 0
-714.299 -4.05765 0
-712.668 -4.07685 0
-711.038 -4.09483 0
-709.406 -4.11386 0
-707.775 -4.13397 0
-706.144 -4.15403 0
-704.515 -4.17238 0
-702.885 -4.1899 0
-701.254 -4.21059 0
-699.625 -4.23037 0
-697.997 -4.25137 0
-696.368 -4.27159 0
-694.739 -4.2919 0
-693.111 -4.31066 0
-691.482 -4.33069 0
-689.855 -4.35018 0
-688.227 -4.37 0
-686.6 -4.38989 0
-684.972 -4.41047 0
-683.345 -4.42995 0
-681.719 -4.44853 0
-680.092 -4.46692 0
-678.465 -4.48454 0
-676.838 -4.50389 0
-675.212 -4.52202 0
-673.587 -4.54081 0
-671.96 -4.55827 0
-670.334 -4.57527 0
-668.708 -4.59073 0
-667.083 -4.60686 0
-665.458 -4.62305 0
-663.834 -4.64063 0
-662.209 -4.65683 0
-660.584 -4.67198 0
-658.96 -4.68474 0
-657.335 -4.69858 0
-655.709 -4.71172 0
-654.086 -4.72317 0
-652.461 -4.73619 0
-650.836 -4.74701 0
-649.212 -4.76138 0
-647.586 -4.77145 0
-645.962 -4.78126 0
-644.339 -4.7926 0
-642.714 -4.8031 0
-641.09 -4.8104 0
-639.465 -4.82101 0
-637.842 -4.82926 0
-636.217 -4.83575 0
-634.593 -4.84432 0
-632.967 -4.85044 0
-631.343 -4.85389 0
-629.72 -4.86023 0
-628.096 -4.86568 0
-626.472 -4.87164 0
-624.849 -4.87717 0
-623.224 -4.8817 0
-621.599 -4.88684 0
-619.974 -4.88907 0
-618.35 -4.89179 0
-616.726 -4.89368 0
-615.101 -4.89649 0
-613.477 -4.89697 0
-611.851 -4.89818 0
-610.227 -4.89687 0
-608.601 -4.89771 0
-606.976 -4.89749 0
-605.352 -4.8969 0
-603.727 -4.89489 0
-602.101 -4.89475 0
-600.476 -4.89387 0
-598.85 -4.89238 0
-597.223 -4.89099 0
-595.599 -4.8877 0
-593.974 -4.88529 0
-592.347 -4.88154 0
-590.723 -4.87761 0
-589.098 -4.87496 0
-587.472 -4.87221 0
-585.844 -4.86861 0
-584.216 -4.86468 0
-582.59 -4.86015 0
-580.965 -4.85616 0
-579.339 -4.85222 0
-577.71 -4.84855 0
-576.085 -4.84356 0
-574.459 -4.83775 0
-572.831 -4.83282 0
-571.205 -4.82693 0
-569.579 -4.82148 0
-567.951 -4.81581 0
-566.324 -4.81044 0
-564.696 -4.80566 0
-563.07 -4.80099 0
-561.442 -4.79521 0
-559.815 -4.79048 0
-558.188 -4.78491 0
-556.562 -4.77764 0
-554.935 -4.77123 0
-553.306 -4.76445 0
-551.679 -4.75945 0
-550.052 -4.75446 0
-548.424 -4.748 0
-546.795 -4.74462 0
-545.168 -4.73917 0
-543.539 -4.73173 0
-541.91 -4.72707 0
-540.283 -4.71982 0
-538.655 -4.71483 0
-537.027 -4.70861 0
-535.399 -4.702 0
-533.772 -4.69648 0
-532.143 -4.69271 0
-530.514 -4.68758 0
-528.885 -4.68237 0
-527.257 -4.67831 0
-525.628 -4.67275 0
-524.001 -4.66807 0
-522.373 -4.66449 0
-520.745 -4.66254 0
-519.117 -4.65885 0
-517.489 -4.65358 0
-515.86 -4.6471 0
-514.232 -4.64228 0
-512.604 -4.63867 0
-510.974 -4.63465 0
-509.344 -4.63052 0
-507.715 -4.62848 0
-506.086 -4.62433 0
-504.458 -4.62186 0
-502.828 -4.62008 0
-501.2 -4.61858 0
-499.572 -4.61472 0
-497.943 -4.61118 0
-496.315 -4.60812 0
-494.685 -4.60615 0
-493.055 -4.60398 0
-491.427 -4.60082 0
-489.798 -4.60006 0
-488.169 -4.59782 0
-486.541 -4.5958 0
-484.912 -4.59415 0
-483.283 -4.59246 0
-481.655 -4.59042 0
-480.028 -4.58952 0
-478.399 -4.58636 0
-476.768 -4.58863 0
-475.141 -4.58933 0
-473.51 -4.58854 0
-471.882 -4.58795 0
-470.254 -4.58926 0
-468.625 -4.58859 0
-466.996 -4.58712 0
-465.368 -4.58976 0
-463.739 -4.58918 0
-462.112 -4.58969 0
-460.483 -4.59085 0
-458.855 -4.59257 0
-457.228 -4.59147 0
-455.598 -4.59024 0
-453.971 -4.59244 0
-452.342 -4.59275 0
-450.714 -4.59378 0
-449.086 -4.59588 0
-447.457 -4.59565 0
-445.828 -4.59717 0
-444.201 -4.59991 0
-442.573 -4.60179 0
-440.946 -4.60392 0
-439.317 -4.60478 0
-437.688 -4.60737 0
-436.061 -4.60817 0
-434.433 -4.60855 0
-432.805 -4.61276 0
-431.176 -4.61359 0
-429.55 -4.6156 0
-427.921 -4.61695 0
-426.293 -4.61989 0
-424.662 -4.61967 0
-423.035 -4.62212 0
-421.408 -4.62522 0
-419.779 -4.62615 0
-418.151 -4.62849 0
-416.526 -4.62923 0
-414.898 -4.63285 0
-413.271 -4.63513 0
-411.641 -4.63723 0
-410.013 -4.63951 0
-408.387 -4.64141 0
-406.759 -4.64223 0
-405.133 -4.64438 0
-403.503 -4.64531 0
-401.878 -4.64882 0
-400.25 -4.65184 0
-398.621 -4.65242 0
-396.993 -4.65356 0
-395.364 -4.6549 0
-393.737 -4.65646 0
-392.111 -4.6576 0
-390.484 -4.65984 0
-388.858 -4.66263 0
-387.229 -4.66362 0
-385.604 -4.66501 0
-383.975 -4.66686 0
-382.347 -4.66748 0
-380.718 -4.66893 0
-379.092 -4.67002 0
-377.464 -4.67386 0
-375.836 -4.67611 0
-374.21 -4.67744 0
-372.584 -4.67831 0
-370.956 -4.67806 0
-369.329 -4.67999 0
-367.703 -4.68028 0
-366.076 -4.68084 0
-364.45 -4.68169 0
-362.823 -4.68525 0
-361.196 -4.68513 0
-359.57 -4.68465 0
-357.942 -4.68668 0
-356.313 -4.68525 0
-354.686 -4.68423 0
-353.059 -4.68709 0
-351.433 -4.6901 0
-349.804 -4.69099 0
-348.176 -4.69141 0
-346.551 -4.69299 0
-344.923 -4.69293 0
-343.295 -4.69388 0
-341.668 -4.69478 0
-340.042 -4.69566 0
-338.414 -4.69433 0
-336.787 -4.69381 0
-335.16 -4.69437 0
-333.535 -4.69614 0
-331.906 -4.69714 0
-330.281 -4.69771 0
-328.653 -4.69626 0
-327.026 -4.69731 0
-325.397 -4.69932 0
-323.772 -4.69953 0
-322.145 -4.69758 0
-320.519 -4.69777 0
-318.894 -4.69447 0
-317.265 -4.69537 0
-315.638 -4.69633 0
-314.012 -4.69562 0
-312.384 -4.69564 0
-310.756 -4.69625 0
-309.13 -4.69363 0
-307.502 -4.69025 0
-305.876 -4.69286 0
-304.25 -4.69425 0
-302.623 -4.69316 0
-300.997 -4.69174 0
-299.37 -4.68979 0
-297.743 -4.69018 0
-296.116 -4.68924 0
-294.488 -4.69022 0
-292.86 -4.68841 0
-291.232 -4.68784 0
-289.605 -4.68909 0
-287.98 -4.68794 0
-286.354 -4.6853 0
-284.727 -4.68414 0
-283.098 -4.68245 0
-281.47 -4.68072 0
-279.843 -4.6815 0
-278.217 -4.67963 0
-276.592 -4.67793 0
-274.962 -4.67652 0
-273.335 -4.67675 0
-271.705 -4.67663 0
-270.08 -4.67637 0
-268.454 -4.67445 0
-266.827 -4.67482 0
-265.2 -4.67288 0
-263.572 -4.67484 0
-261.946 -4.67095 0
-260.32 -4.6698 0
-258.69 -4.66837 0
-257.064 -4.66528 0
-255.435 -4.66645 0
-253.808 -4.66549 0
-252.181 -4.66548 0
-250.552 -4.66478 0
-248.929 -4.66456 0
-247.302 -4.66139 0
-245.675 -4.65975 0
-244.047 -4.65847 0
-242.42 -4.65878 0
-240.793 -4.65555 0
-239.166 -4.65693 0
-237.538 -4.65399 0
-235.912 -4.65359 0
-234.286 -4.65267 0
-232.656 -4.64804 0
-231.027 -4.64778 0
-229.399 -4.6453 0
-227.773 -4.64613 0
-226.145 -4.6446 0
-224.517 -4.64342 0
-222.89 -4.64278 0
-221.263 -4.64055 0
-219.637 -4.64051 0
-218.009 -4.63936 0
-216.383 -4.6395 0
-214.757 -4.63932 0
-213.129 -4.63523 0
-211.501 -4.63409 0
-209.875 -4.63378 0
-208.248 -4.63204 0
-206.62 -4.6289 0
-204.992 -4.6293 0
-203.365 -4.62949 0
-201.738 -4.63176 0
-200.111 -4.62886 0
-198.483 -4.62836 0
-196.858 -4.62645 0
-195.229 -4.62754 0
-193.602 -4.62687 0
-191.975 -4.62596 0
-190.349 -4.62392 0
-188.723 -4.62228 0
-187.093 -4.62194 0
-185.467 -4.62343 0
-183.838 -4.62193 0
-182.213 -4.62195 0
-180.585 -4.62015 0
-178.958 -4.62096 0
-177.332 -4.62034 0
-175.704 -4.61828 0
-174.078 -4.61706 0
-172.45 -4.6183 0
-170.821 -4.61595 0
-169.195 -4.61549 0
-167.569 -4.61408 0
-165.94 -4.61356 0
-164.313 -4.61234 0
-162.684 -4.61097 0
-161.057 -4.61208 0
-159.43 -4.61326 0
-157.805 -4.61178 0
-156.176 -4.60996 0
-154.549 -4.60736 0
-152.921 -4.60832 0
-151.294 -4.60958 0
-149.667 -4.60781 0
-148.039 -4.60644 0
-146.412 -4.61023 0
-144.784 -4.60942 0
-143.158 -4.60724 0
-141.53 -4.60574 0
-139.906 -4.60478 0
-138.279 -4.60797 0
-136.651 -4.60663 0
-135.021 -4.60672 0
-133.397 -4.60891 0
-131.77 -4.60465 0
-130.141 -4.60697 0
-128.516 -4.60886 0
-126.887 -4.6074 0
-125.257 -4.60735 0
-123.632 -4.61064 0
-122.007 -4.60987 0
-120.379 -4.60836 0
-118.752 -4.60858 0
-117.124 -4.60616 0
-115.499 -4.6082 0
-113.872 -4.60796 0
-112.245 -4.61014 0
-110.618 -4.61024 0
-108.99 -4.60991 0
-107.363 -4.60541 0
-105.737 -4.60839 0
-104.11 -4.60906 0
-102.483 -4.60923 0
-100.857 -4.60777 0
-99.2309 -4.611 0
-97.6065 -4.6114 0
-95.9765 -4.61093 0
-94.3497 -4.61145 0
-92.725 -4.61306 0
-91.0976 -4.61381 0
-89.4723 -4.61146 0
-87.8467 -4.61187 0
-86.2164 -4.61227 0
-84.5879 -4.61307 0
-82.9615 -4.61555 0
-81.334 -4.61575 0
-79.7081 -4.61357 0
-78.0806 -4.61692 0
-76.4534 -4.61792 0
-74.8272 -4.61811 0
-73.2006 -4.61593 0
-71.5725 -4.61448 0
-69.9423 -4.61663 0
-68.3175 -4.61424 0
-66.6923 -4.61447 0
-65.0657 -4.61588 0
-63.4404 -4.61292 0
-61.8122 -4.61571 0
-60.1863 -4.61574 0
-58.5567 -4.61562 0
-56.9309 -4.61615 0
-55.3061 -4.61759 0
-53.6781 -4.61511 0
-52.0496 -4.61362 0
-50.4241 -4.6171 0
-48.7957 -4.6158 0
-47.1685 -4.61665 0
-45.542 -4.61687 0
-43.917 -4.61859 0
-42.29 -4.61464 0
-40.6647 -4.61757 0
-39.0376 -4.61736 0
-37.4126 -4.61387 0
-35.7868 -4.6159 0
-34.1577 -4.61649 0
-32.5314 -4.61447 0
-30.9045 -4.61544 0
-29.278 -4.61704 0
-27.6492 -4.61651 0
-26.0238 -4.61724 0
-24.3977 -4.61798 0
-22.7717 -4.61906 0
-21.1464 -4.61526 0
-19.5193 -4.6143 0
-17.8924 -4.61598 0
-16.2659 -4.61765 0
-14.6384 -4.61594 0
-13.0114 -4.61747 0
-11.3848 -4.61336 0
-9.75819 -4.61472 0
-8.13226 -4.61496 0
-6.50528 -4.61514 0
-4.88006 -4.61759 0
-3.25157 -4.61831 0
-1.62658 -4.61656 0
0 -4.61627 0
-1097.86 63.7224 0
-1097.89 56.8473 0
-1097.9 50.187 0
-1097.87 43.8364 0
-1097.85 37.8235 0
-1097.86 32.0794 0
-1097.86 26.5437 0
-1097.79 21.2864 0
-1097.67 16.3911 0
-1097.53 11.8849 0
-1097.37 7.76667 0
-1097.18 4.02922 0
-1096.97 0.661315 0
-1096.73 -2.35191 0
-1096.45 -5.03079 0
-1096.12 -7.39817 0
-1095.76 -9.47919 0
-1095.34 -11.2983 0
-1094.88 -12.879 0
-1094.36 -14.2438 0
-1093.8 -15.4124 0
-1093.18 -16.4036 0
-1092.52 -17.2347 0
-1091.81 -17.9207 0
-1091.05 -18.4752 0
-1090.25 -18.9109 0
-1089.42 -19.2381 0
-1088.54 -19.4666 0
-1087.63 -19.6052 0
-1086.68 -19.6616 0
-1085.7 -19.6432 0
-1084.69 -19.5559 0
-1083.65 -19.4051 0
-1082.58 -19.1956 0
-1081.48 -18.9332 0
-1080.35 -18.6217 0
-1079.19 -18.2654 0
-1078 -17.8682 0
-1076.79 -17.4337 0
-1075.56 -16.9659 0
-1074.3 -16.4681 0
-1073.01 -15.9434 0
-1071.7 -15.3956 0
-1070.36 -14.8273 0
-1069.01 -14.2418 0
-1067.63 -13.6414 0
-1066.23 -13.03 0
-1064.8 -12.4094 0
-1063.36 -11.7825 0
-1061.9 -11.1516 0
-1060.41 -10.5194 0
-1058.91 -9.88723 0
-1057.4 -9.25782 0
-1055.86 -8.63284 0
-1054.31 -8.01384 0
-1052.74 -7.40268 0
-1051.16 -6.80135 0
-1049.57 -6.21021 0
-1047.96 -5.63169 0
-1046.34 -5.06631 0
-1044.71 -4.51551 0
-1043.07 -3.97996 0
-1041.42 -3.46101 0
-1039.75 -2.95869 0
-1038.08 -2.47466 0
-1036.4 -2.00869 0
-1034.72 -1.56173 0
-1033.02 -1.13473 0
-1031.32 -0.727037 0
-1029.61 -0.339419 0
-1027.9 0.0275543 0
-1026.18 0.374383 0
-1024.46 0.70027 0
-1022.74 1.00571 0
-1021.01 1.29076 0
-1019.28 1.55465 0
-1017.55 1.79818 0
-1015.81 2.02172 0
-1014.08 2.22489 0
-1012.34 2.40842 0
-1010.6 2.57249 0
-1008.86 2.71713 0
-1007.13 2.84307 0
-1005.39 2.95054 0
-1003.65 3.04019 0
-1001.91 3.11219 0
-1000.18 3.16699 0
-998.447 3.20475 0
-996.715 3.22667 0
-994.986 3.23339 0
-993.259 3.22481 0
-991.534 3.2021 0
-989.811 3.16576 0
-988.091 3.11586 0
-986.374 3.05305 0
-984.66 2.97848 0
-982.949 2.89268 0
-981.241 2.79585 0
-979.536 2.68893 0
-977.835 2.57267 0
-976.137 2.44686 0
-974.442 2.31297 0
-972.751 2.17153 0
-971.064 2.02258 0
-969.38 1.86697 0
-967.7 1.7057 0
-966.023 1.53843 0
-964.35 1.36714 0
-962.68 1.19135 0
-961.014 1.01184 0
-959.351 0.829523 0
-957.692 0.643676 0
-956.036 0.456172 0
-954.383 0.266955 0
-952.733 0.0766158 0
-951.086 -0.114232 0
-949.443 -0.305803 0
-947.803 -0.496706 0
-946.165 -0.687321 0
-944.53 -0.876738 0
-942.898 -1.06541 0
-941.269 -1.25113 0
-939.641 -1.43547 0
-938.017 -1.61732 0
-936.395 -1.79641 0
-934.775 -1.97261 0
-933.158 -2.14504 0
-931.542 -2.31416 0
-929.928 -2.47894 0
-928.316 -2.64 0
-926.707 -2.79693 0
-925.098 -2.94963 0
-923.491 -3.0974 0
-921.886 -3.24079 0
-920.281 -3.3789 0
-918.678 -3.51189 0
-917.077 -3.63978 0
-915.476 -3.76281 0
-913.876 -3.88037 0
-912.277 -3.992 0
-910.678 -4.09795 0
-909.08 -4.19883 0
-907.482 -4.29351 0
-905.886 -4.38311 0
-904.29 -4.4671 0
-902.693 -4.54624 0
-901.097 -4.61922 0
-899.501 -4.68667 0
-897.906 -4.74927 0
-896.31 -4.80603 0
-894.714 -4.85765 0
-893.118 -4.90398 0
-891.522 -4.9445 0
-889.926 -4.98113 0
-888.329 -5.01189 0
-886.732 -5.03759 0
-885.134 -5.05826 0
-883.536 -5.07531 0
-881.937 -5.08677 0
-880.339 -5.09447 0
-878.739 -5.09708 0
-877.139 -5.09583 0
-875.538 -5.09079 0
-873.936 -5.08149 0
-872.333 -5.0678 0
-870.73 -5.05167 0
-869.126 -5.03176 0
-867.522 -5.00777 0
-865.916 -4.98136 0
-864.31 -4.95215 0
-862.702 -4.91902 0
-861.094 -4.88365 0
-859.485 -4.84587 0
-857.876 -4.80555 0
-856.265 -4.76268 0
-854.653 -4.71755 0
-853.041 -4.67053 0
-851.427 -4.62153 0
-849.813 -4.57053 0
-848.197 -4.51878 0
-846.581 -4.46561 0
-844.964 -4.41065 0
-843.346 -4.35538 0
-841.727 -4.29797 0
-840.108 -4.24062 0
-838.487 -4.18122 0
-836.866 -4.12255 0
-835.244 -4.06248 0
-833.621 -4.00297 0
-831.997 -3.94308 0
-830.372 -3.88277 0
-828.748 -3.82294 0
-827.121 -3.76247 0
-825.495 -3.7025 0
-823.867 -3.64303 0
-822.239 -3.58368 0
-820.611 -3.52525 0
-818.981 -3.46703 0
-817.352 -3.41001 0
-815.721 -3.35229 0
-814.089 -3.29673 0
-812.458 -3.24216 0
-810.825 -3.18804 0
-809.193 -3.135 0
-807.559 -3.08413 0
-805.925 -3.03321 0
-804.291 -2.98341 0
-802.656 -2.9361 0
-801.022 -2.88997 0
-799.387 -2.84491 0
-797.751 -2.80113 0
-796.115 -2.75842 0
-794.479 -2.71668 0
-792.842 -2.67683 0
-791.206 -2.6393 0
-789.569 -2.6038 0
-787.932 -2.56857 0
-786.295 -2.53496 0
-784.657 -2.50434 0
-783.019 -2.47438 0
-781.382 -2.4452 0
-779.745 -2.41882 0
-778.106 -2.39424 0
-776.469 -2.36956 0
-774.831 -2.34734 0
-773.192 -2.32647 0
-771.554 -2.30762 0
-769.916 -2.29079 0
-768.279 -2.27482 0
-766.641 -2.26113 0
-765.002 -2.24815 0
-763.365 -2.23642 0
-761.728 -2.22794 0
-760.09 -2.22059 0
-758.452 -2.21355 0
-756.814 -2.2082 0
-755.177 -2.20455 0
-753.54 -2.20196 0
-751.903 -2.20037 0
-750.267 -2.20035 0
-748.63 -2.20051 0
-746.994 -2.20358 0
-745.357 -2.2071 0
-743.721 -2.21221 0
-742.086 -2.21665 0
-740.451 -2.22403 0
-738.817 -2.2325 0
-737.182 -2.24005 0
-735.547 -2.25019 0
-733.913 -2.26081 0
-732.278 -2.27168 0
-730.644 -2.28329 0
-729.01 -2.29597 0
-727.376 -2.31037 0
-725.742 -2.32489 0
-724.109 -2.33997 0
-722.477 -2.35546 0
-720.844 -2.37103 0
-719.213 -2.38746 0
-717.581 -2.40468 0
-715.949 -2.42165 0
-714.317 -2.44055 0
-712.687 -2.45951 0
-711.055 -2.47871 0
-709.425 -2.49726 0
-707.794 -2.51708 0
-706.163 -2.53764 0
-704.533 -2.5558 0
-702.904 -2.57472 0
-701.274 -2.59445 0
-699.644 -2.61567 0
-698.017 -2.63607 0
-696.388 -2.65687 0
-694.76 -2.6771 0
-693.131 -2.69685 0
-691.503 -2.71719 0
-689.874 -2.7365 0
-688.247 -2.75679 0
-686.619 -2.77667 0
-684.992 -2.79743 0
-683.365 -2.81689 0
-681.738 -2.83528 0
-680.11 -2.85434 0
-678.482 -2.87228 0
-676.856 -2.89118 0
-675.23 -2.91017 0
-673.605 -2.92871 0
-671.978 -2.94521 0
-670.352 -2.96301 0
-668.726 -2.9793 0
-667.1 -2.99509 0
-665.475 -3.01175 0
-663.849 -3.02921 0
-662.224 -3.04484 0
-660.599 -3.05951 0
-658.974 -3.07438 0
-657.349 -3.08746 0
-655.724 -3.10123 0
-654.098 -3.11323 0
-652.473 -3.12653 0
-650.848 -3.13808 0
-649.223 -3.14996 0
-647.597 -3.16121 0
-645.973 -3.1718 0
-644.349 -3.18326 0
-642.724 -3.19203 0
-641.1 -3.20087 0
-639.475 -3.20991 0
-637.849 -3.21781 0
-636.224 -3.22565 0
-634.6 -3.23283 0
-632.975 -3.23943 0
-631.351 -3.24564 0
-629.727 -3.25054 0
-628.102 -3.25618 0
-626.477 -3.26199 0
-624.853 -3.26664 0
-623.228 -3.27213 0
-621.603 -3.27491 0
-619.977 -3.27859 0
-618.352 -3.28109 0
-616.727 -3.28316 0
-615.103 -3.28454 0
-613.477 -3.28704 0
-611.851 -3.28607 0
-610.225 -3.28577 0
-608.6 -3.28609 0
-606.976 -3.28641 0
-605.351 -3.28552 0
-603.725 -3.28452 0
-602.099 -3.28357 0
-600.473 -3.28216 0
-598.848 -3.28078 0
-597.223 -3.27934 0
-595.596 -3.27684 0
-593.972 -3.27375 0
-592.347 -3.27093 0
-590.72 -3.2662 0
-589.095 -3.26358 0
-587.468 -3.25932 0
-585.841 -3.25628 0
-584.214 -3.25203 0
-582.588 -3.24844 0
-580.961 -3.2438 0
-579.334 -3.23989 0
-577.708 -3.23509 0
-576.081 -3.23095 0
-574.454 -3.2261 0
-572.827 -3.21914 0
-571.2 -3.21491 0
-569.573 -3.20953 0
-567.946 -3.20293 0
-566.319 -3.19723 0
-564.692 -3.1923 0
-563.065 -3.18707 0
-561.437 -3.18269 0
-559.809 -3.17662 0
-558.181 -3.17173 0
-556.555 -3.16499 0
-554.928 -3.15831 0
-553.301 -3.1513 0
-551.673 -3.14681 0
-550.046 -3.14052 0
-548.418 -3.13466 0
-546.79 -3.13072 0
-545.162 -3.12419 0
-543.534 -3.11936 0
-541.905 -3.11246 0
-540.277 -3.10618 0
-538.65 -3.10058 0
-537.023 -3.09435 0
-535.395 -3.08879 0
-533.767 -3.08291 0
-532.138 -3.07849 0
-530.51 -3.07384 0
-528.882 -3.06788 0
-527.253 -3.06382 0
-525.624 -3.05833 0
-523.996 -3.05492 0
-522.369 -3.05119 0
-520.741 -3.0474 0
-519.112 -3.0439 0
-517.482 -3.03821 0
-515.854 -3.03307 0
-514.227 -3.02897 0
-512.598 -3.02395 0
-510.969 -3.0193 0
-509.341 -3.01611 0
-507.712 -3.01278 0
-506.083 -3.01057 0
-504.455 -3.00741 0
-502.827 -3.00572 0
-501.197 -3.00294 0
-499.567 -2.99969 0
-497.939 -2.99565 0
-496.31 -2.99398 0
-494.682 -2.99127 0
-493.054 -2.98866 0
-491.425 -2.98719 0
-489.797 -2.98513 0
-488.168 -2.98257 0
-486.539 -2.98167 0
-484.911 -2.981 0
-483.283 -2.97815 0
-481.654 -2.9766 0
-480.025 -2.97544 0
-478.396 -2.97398 0
-476.77 -2.97535 0
-475.14 -2.975 0
-473.511 -2.97341 0
-471.883 -2.97365 0
-470.254 -2.9747 0
-468.626 -2.97458 0
-466.996 -2.97269 0
-465.368 -2.97409 0
-463.74 -2.97611 0
-462.111 -2.97456 0
-460.483 -2.97502 0
-458.854 -2.97696 0
-457.226 -2.97734 0
-455.599 -2.97796 0
-453.971 -2.97732 0
-452.343 -2.97878 0
-450.715 -2.98003 0
-449.086 -2.98108 0
-447.459 -2.98309 0
-445.832 -2.98386 0
-444.203 -2.98646 0
-442.575 -2.987 0
-440.946 -2.9888 0
-439.318 -2.99082 0
-437.689 -2.99223 0
-436.061 -2.9939 0
-434.433 -2.99596 0
-432.806 -2.99767 0
-431.178 -3.00043 0
-429.55 -3.0026 0
-427.922 -3.00274 0
-426.294 -3.00427 0
-424.664 -3.00665 0
-423.037 -3.00957 0
-421.409 -3.01018 0
-419.781 -3.01291 0
-418.154 -3.01482 0
-416.527 -3.01489 0
-414.901 -3.01935 0
-413.272 -3.02124 0
-411.645 -3.02322 0
-410.016 -3.0264 0
-408.389 -3.02763 0
-406.761 -3.0289 0
-405.134 -3.0311 0
-403.506 -3.03394 0
-401.878 -3.03448 0
-400.251 -3.03679 0
-398.623 -3.03792 0
-396.995 -3.04055 0
-395.367 -3.04136 0
-393.74 -3.04352 0
-392.112 -3.04299 0
-390.485 -3.04616 0
-388.859 -3.04859 0
-387.231 -3.05004 0
-385.604 -3.05296 0
-383.977 -3.05315 0
-382.347 -3.05287 0
-380.72 -3.05664 0
-379.093 -3.0578 0
-377.466 -3.06067 0
-375.841 -3.06274 0
-374.214 -3.06306 0
-372.585 -3.06469 0
-370.959 -3.06469 0
-369.331 -3.06723 0
-367.704 -3.068 0
-366.076 -3.06773 0
-364.449 -3.07038 0
-362.823 -3.07151 0
-361.196 -3.073 0
-359.568 -3.0721 0
-357.941 -3.07169 0
-356.314 -3.07141 0
-354.687 -3.07267 0
-353.061 -3.07302 0
-351.433 -3.0768 0
-349.806 -3.07766 0
-348.178 -3.0786 0
-346.552 -3.08074 0
-344.925 -3.08002 0
-343.297 -3.081 0
-341.67 -3.08195 0
-340.043 -3.08045 0
-338.416 -3.08068 0
-336.787 -3.08126 0
-335.162 -3.08132 0
-333.534 -3.08274 0
-331.907 -3.08341 0
-330.278 -3.0839 0
-328.654 -3.08395 0
-327.027 -3.0839 0
-325.4 -3.08534 0
-323.772 -3.0863 0
-322.145 -3.0857 0
-320.519 -3.08513 0
-318.892 -3.0828 0
-317.266 -3.0832 0
-315.639 -3.08439 0
-314.012 -3.08332 0
-312.386 -3.08366 0
-310.758 -3.08159 0
-309.13 -3.08056 0
-307.502 -3.0793 0
-305.876 -3.08085 0
-304.249 -3.08071 0
-302.622 -3.07916 0
-300.995 -3.0791 0
-299.368 -3.07771 0
-297.742 -3.07627 0
-296.115 -3.07651 0
-294.487 -3.07667 0
-292.861 -3.07556 0
-291.234 -3.07581 0
-289.607 -3.07474 0
-287.978 -3.07416 0
-286.353 -3.0725 0
-284.726 -3.07069 0
-283.098 -3.06899 0
-281.468 -3.06789 0
-279.842 -3.06741 0
-278.216 -3.06592 0
-276.59 -3.06585 0
-274.962 -3.06354 0
-273.333 -3.06328 0
-271.707 -3.06256 0
-270.08 -3.06261 0
-268.454 -3.06208 0
-266.826 -3.06171 0
-265.198 -3.05962 0
-263.572 -3.05899 0
-261.943 -3.0574 0
-260.316 -3.05526 0
-258.688 -3.05392 0
-257.061 -3.05246 0
-255.434 -3.05184 0
-253.806 -3.05332 0
-252.18 -3.05103 0
-250.553 -3.05158 0
-248.926 -3.05225 0
-247.3 -3.04816 0
-245.673 -3.04623 0
-244.046 -3.04629 0
-242.419 -3.04489 0
-240.793 -3.04227 0
-239.165 -3.04249 0
-237.537 -3.04081 0
-235.91 -3.03992 0
-234.283 -3.03891 0
-232.657 -3.0361 0
-231.028 -3.03392 0
-229.401 -3.0324 0
-227.772 -3.03261 0
-226.144 -3.031 0
-224.517 -3.02989 0
-222.888 -3.02956 0
-221.261 -3.02879 0
-219.633 -3.02905 0
-218.008 -3.02608 0
-216.381 -3.02542 0
-214.754 -3.02408 0
-213.126 -3.02338 0
-211.501 -3.02151 0
-209.873 -3.02029 0
-208.246 -3.01932 0
-206.619 -3.01608 0
-204.992 -3.01468 0
-203.366 -3.01674 0
-201.739 -3.01705 0
-200.11 -3.01731 0
-198.483 -3.01552 0
-196.857 -3.01459 0
-195.23 -3.01389 0
-193.602 -3.01518 0
-191.974 -3.01227 0
-190.347 -3.01131 0
-188.72 -3.00843 0
-187.093 -3.00848 0
-185.467 -3.00988 0
-183.838 -3.01046 0
-182.21 -3.00849 0
-180.584 -3.00723 0
-178.958 -3.00788 0
-177.329 -3.00649 0
-175.701 -3.00614 0
-174.075 -3.00624 0
-172.448 -3.00433 0
-170.82 -3.00366 0
-169.192 -3.00277 0
-167.566 -3.00118 0
-165.939 -3.00038 0
-164.311 -2.99911 0
-162.685 -2.99828 0
-161.057 -2.99794 0
-159.43 -3.0008 0
-157.804 -2.99805 0
-156.174 -2.99626 0
-154.548 -2.99564 0
-152.923 -2.99541 0
-151.294 -2.99531 0
-149.667 -2.99486 0
-148.04 -2.99432 0
-146.413 -2.99596 0
-144.785 -2.99505 0
-143.158 -2.9942 0
-141.531 -2.99355 0
-139.905 -2.9932 0
-138.278 -2.99376 0
-136.651 -2.99403 0
-135.023 -2.99307 0
-133.396 -2.99414 0
-131.768 -2.99538 0
-130.142 -2.99505 0
-128.514 -2.99532 0
-126.888 -2.995 0
-125.261 -2.99515 0
-123.633 -2.99631 0
-122.006 -2.99591 0
-120.379 -2.99607 0
-118.753 -2.99485 0
-117.127 -2.99351 0
-115.501 -2.99495 0
-113.874 -2.99539 0
-112.246 -2.99788 0
-110.619 -2.99583 0
-108.989 -2.9957 0
-107.363 -2.99299 0
-105.738 -2.99522 0
-104.11 -2.99511 0
-102.482 -2.99606 0
-100.857 -2.99732 0
-99.2293 -2.99745 0
-97.6033 -2.99874 0
-95.977 -2.99786 0
-94.3507 -2.99929 0
-92.7251 -2.99909 0
-91.0978 -3.00086 0
-89.4711 -3.0008 0
-87.8426 -2.99896 0
-86.2174 -2.99836 0
-84.5893 -3.00143 0
-82.962 -3.00214 0
-81.336 -3.00213 0
-79.7082 -3.00159 0
-78.0831 -3.0033 0
-76.4553 -3.00384 0
-74.8267 -3.00451 0
-73.1999 -3.0034 0
-71.5709 -3.00341 0
-69.9443 -3.00249 0
-68.3179 -3.00192 0
-66.6929 -3.00275 0
-65.0642 -3.00453 0
-63.4389 -3.00125 0
-61.8134 -3.00321 0
-60.1865 -3.00208 0
-58.5584 -3.00291 0
-56.9317 -3.00358 0
-55.3035 -3.00446 0
-53.6773 -3.0024 0
-52.0519 -3.00064 0
-50.4252 -3.00336 0
-48.7979 -3.00367 0
-47.1698 -3.0048 0
-45.5435 -3.00511 0
-43.916 -3.00538 0
-42.2901 -3.00505 0
-40.6644 -3.0041 0
-39.038 -3.00295 0
-37.4134 -3.00278 0
-35.7867 -3.00239 0
-34.1589 -3.0033 0
-32.5313 -3.0022 0
-30.9058 -3.00281 0
-29.2781 -3.00304 0
-27.6522 -3.00277 0
-26.0239 -3.00625 0
-24.3974 -3.00555 0
-22.7704 -3.00506 0
-21.1438 -3.0032 0
-19.5181 -3.00215 0
-17.8935 -3.00395 0
-16.2654 -3.0035 0
-14.6375 -3.00298 0
-13.0108 -3.00379 0
-11.384 -3.0021 0
-9.7578 -3.00295 0
-8.13075 -3.00226 0
-6.5033 -3.00431 0
-4.87769 -3.00515 0
-3.25255 -3.00431 0
-1.62709 -3.00365 0
0 -3.00477 0
-1105.03 64.3175 0
-1104.65 57.2458 0
-1104.4 50.6093 0
-1104.12 44.2686 0
-1103.83 38.2091 0
-1103.55 32.4246 0
-1103.25 26.926 0
-1102.88 21.7244 0
-1102.44 16.8545 0
-1101.95 12.3549 0
-1101.43 8.23972 0
-1100.89 4.50691 0
-1100.32 1.14736 0
-1099.74 -1.85391 0
-1099.13 -4.5159 0
-1098.51 -6.86178 0
-1097.86 -8.91629 0
-1097.19 -10.7052 0
-1096.49 -12.2527 0
-1095.76 -13.5818 0
-1095 -14.7144 0
-1094.2 -15.6692 0
-1093.38 -16.4638 0
-1092.52 -17.114 0
-1091.63 -17.634 0
-1090.72 -18.0358 0
-1089.77 -18.3306 0
-1088.8 -18.528 0
-1087.79 -18.6365 0
-1086.77 -18.6637 0
-1085.71 -18.6169 0
-1084.63 -18.5016 0
-1083.52 -18.3239 0
-1082.4 -18.0879 0
-1081.24 -17.7998 0
-1080.06 -17.4628 0
-1078.86 -17.0817 0
-1077.64 -16.6599 0
-1076.39 -16.2014 0
-1075.12 -15.7099 0
-1073.83 -15.1887 0
-1072.52 -14.6412 0
-1071.18 -14.071 0
-1069.83 -13.481 0
-1068.46 -12.8746 0
-1067.06 -12.2536 0
-1065.65 -11.622 0
-1064.22 -10.9819 0
-1062.77 -10.3363 0
-1061.3 -9.68736 0
-1059.82 -9.03769 0
-1058.32 -8.38896 0
-1056.8 -7.74348 0
-1055.27 -7.10301 0
-1053.73 -6.46895 0
-1052.17 -5.84405 0
-1050.6 -5.22925 0
-1049.01 -4.62587 0
-1047.42 -4.03524 0
-1045.81 -3.45854 0
-1044.19 -2.89714 0
-1042.56 -2.35156 0
-1040.93 -1.82303 0
-1039.28 -1.31209 0
-1037.63 -0.819809 0
-1035.96 -0.346573 0
-1034.29 0.107117 0
-1032.62 0.54064 0
-1030.94 0.954222 0
-1029.25 1.347 0
-1027.56 1.71915 0
-1025.86 2.07 0
-1024.16 2.39951 0
-1022.45 2.70836 0
-1020.74 2.99591 0
-1019.03 3.26236 0
-1017.32 3.50809 0
-1015.61 3.73305 0
-1013.89 3.93759 0
-1012.17 4.12197 0
-1010.45 4.28647 0
-1008.73 4.43155 0
-1007.01 4.55726 0
-1005.29 4.66437 0
-1003.57 4.75314 0
-1001.85 4.82412 0
-1000.13 4.87763 0
-998.415 4.9142 0
-996.699 4.93459 0
-994.984 4.93901 0
-993.27 4.92877 0
-991.559 4.90409 0
-989.85 4.86492 0
-988.142 4.81225 0
-986.437 4.74708 0
-984.735 4.66988 0
-983.034 4.58117 0
-981.336 4.48158 0
-979.641 4.37172 0
-977.949 4.2524 0
-976.26 4.12358 0
-974.573 3.98664 0
-972.89 3.84171 0
-971.209 3.68958 0