<?xml version="1.0"?>
<VTKFile type="StructuredGrid"  version="0.1" byte_order="LittleEndian" compressor="vtkZLibDataCompressor">
  <StructuredGrid WholeExtent="0 700 0 30 0 0">
    <Piece Extent="0 700 0 30 0 0">
      <PointData Vectors="Velocity">
        <DataArray type="Float32" Name="Velocity" NumberOfComponents="3" format="ascii">
-63.116 -0.861863 0
-63.0387 -0.877192 0
-62.948 -0.885295 0
-62.8577 -0.893829 0
-62.7831 -0.895944 0
-62.7102 -0.899182 0
-62.6265 -0.898084 0
-62.5471 -0.892481 0
-62.4627 -0.885137 0
-62.3801 -0.898218 0
-62.3177 -0.888558 0
-62.2228 -0.890391 0
-62.1244 -0.893753 0
-62.0514 -0.90196 0
-61.9795 -0.880084 0
-61.8848 -0.883833 0
-61.804 -0.895933 0
-61.7234 -0.9015 0
-61.6403 -0.905434 0
-61.5577 -0.899386 0
-61.4821 -0.89236 0
-61.3938 -0.88427 0
-61.3118 -0.893483 0
-61.2369 -0.889242 0
-61.1432 -0.875089 0
-61.0592 -0.881123 0
-60.9814 -0.872203 0
-60.8958 -0.875191 0
-60.8261 -0.89452 0
-60.7386 -0.881197 0
-60.6622 -0.87895 0
-60.5676 -0.879013 0
-60.5016 -0.883023 0
-60.4087 -0.875724 0
-60.3349 -0.884555 0
-60.2621 -0.879252 0
-60.1807 -0.867565 0
-60.0921 -0.8882 0
-60.0017 -0.894696 0
-59.9234 -0.904842 0
-59.8458 -0.888929 0
-59.7562 -0.883966 0
-59.6738 -0.881812 0
-59.5909 -0.903063 0
-59.4981 -0.898383 0
-59.4145 -0.880647 0
-59.3314 -0.872483 0
-59.2601 -0.877439 0
-59.1752 -0.879468 0
-59.1032 -0.866343 0
-59.025 -0.863024 0
-58.9456 -0.852225 0
-58.8586 -0.851161 0
-58.779 -0.844616 0
-58.6824 -0.835671 0
-58.5932 -0.834304 0
-58.5333 -0.859684 0
-58.4534 -0.869763 0
-58.3682 -0.854071 0
-58.2919 -0.845892 0
-58.1914 -0.872494 0
-58.1138 -0.877775 0
-58.0258 -0.838148 0
-57.9407 -0.835473 0
-57.8659 -0.854195 0
-57.7894 -0.850727 0
-57.6936 -0.839624 0
-57.6027 -0.855838 0
-57.5369 -0.863709 0
-57.4476 -0.858797 0
-57.3635 -0.852539 0
-57.2855 -0.855061 0
-57.2155 -0.841349 0
-57.1237 -0.844164 0
-57.0306 -0.846381 0
-56.9601 -0.85281 0
-56.8712 -0.851043 0
-56.8024 -0.851897 0
-56.7065 -0.859332 0
-56.6229 -0.851394 0
-56.5593 -0.848224 0
-56.4689 -0.843178 0
-56.3744 -0.849647 0
-56.3017 -0.834951 0
-56.2205 -0.848752 0
-56.1351 -0.852824 0
-56.0489 -0.844715 0
-55.9716 -0.843211 0
-55.8974 -0.834907 0
-55.8079 -0.843154 0
-55.7357 -0.841137 0
-55.6608 -0.822311 0
-55.5761 -0.844865 0
-55.4988 -0.825361 0
-55.4122 -0.835348 0
-55.328 -0.830258 0
-55.2417 -0.839471 0
-55.1678 -0.812638 0
-55.0924 -0.81222 0
-54.9919 -0.820562 0
-54.9113 -0.809336 0
-54.8227 -0.829611 0
-54.7404 -0.824003 0
-54.6548 -0.820588 0
-54.5703 -0.818482 0
-54.4867 -0.830043 0
-54.386 -0.815944 0
-54.3029 -0.836559 0
-54.2342 -0.814401 0
-54.1426 -0.805058 0
-54.0635 -0.815601 0
-53.9845 -0.811932 0
-53.8935 -0.814683 0
-53.8282 -0.805774 0
-53.7404 -0.810978 0
-53.6514 -0.818655 0
-53.5684 -0.806757 0
-53.4922 -0.790133 0
-53.4106 -0.793925 0
-53.3298 -0.801104 0
-53.2522 -0.801798 0
-53.1658 -0.784592 0
-53.0639 -0.785403 0
-52.9709 -0.790603 0
-52.9082 -0.804665 0
-52.8328 -0.790793 0
-52.7464 -0.797187 0
-52.6566 -0.804533 0
-52.5767 -0.80336 0
-52.4926 -0.790322 0
-52.4171 -0.791499 0
-52.3379 -0.768773 0
-52.2468 -0.765766 0
-52.163 -0.757143 0
-52.0788 -0.765999 0
-51.9876 -0.752722 0
-51.91 -0.759557 0
-51.8329 -0.761311 0
-51.7613 -0.771919 0
-51.6735 -0.760221 0
-51.6039 -0.769813 0
-51.5169 -0.771171 0
-51.4335 -0.765462 0
-51.3363 -0.768434 0
-51.2301 -0.75268 0
-51.1511 -0.762264 0
-51.0754 -0.7522 0
-50.9847 -0.7624 0
-50.9015 -0.761046 0
-50.8455 -0.755236 0
-50.7544 -0.744953 0
-50.6668 -0.752559 0
-50.5751 -0.744654 0
-50.4899 -0.74273 0
-50.4096 -0.750697 0
-50.3249 -0.733182 0
-50.2482 -0.736992 0
-50.1695 -0.752638 0
-50.0863 -0.737809 0
-49.998 -0.733397 0
-49.9081 -0.729447 0
-49.8319 -0.728576 0
-49.7417 -0.726492 0
-49.6542 -0.727081 0
-49.5763 -0.72941 0
-49.4948 -0.717615 0
-49.4096 -0.718639 0
-49.3351 -0.726683 0
-49.2446 -0.740402 0
-49.1655 -0.725008 0
-49.0762 -0.736817 0
-48.9932 -0.734985 0
-48.9053 -0.727812 0
-48.8347 -0.724675 0
-48.7441 -0.716048 0
-48.6654 -0.720843 0
-48.5702 -0.707983 0
-48.4793 -0.711684 0
-48.4031 -0.717635 0
-48.3104 -0.707685 0
-48.2373 -0.716652 0
-48.1547 -0.709222 0
-48.0732 -0.708511 0
-47.9846 -0.719155 0
-47.9032 -0.702024 0
-47.8356 -0.694215 0
-47.7429 -0.696977 0
-47.642 -0.707842 0
-47.5569 -0.692302 0
-47.4714 -0.685804 0
-47.3998 -0.69047 0
-47.3249 -0.686625 0
-47.2318 -0.687547 0
-47.1321 -0.6795 0
-47.0469 -0.702563 0
-46.9561 -0.699376 0
-46.87 -0.685836 0
-46.7866 -0.691188 0
-46.7142 -0.684455 0
-46.6229 -0.686265 0
-46.5468 -0.686203 0
-46.449 -0.678714 0
-46.364 -0.67211 0
-46.2673 -0.671993 0
-46.1788 -0.682143 0
-46.1067 -0.678084 0
-46.0228 -0.686622 0
-45.9361 -0.682382 0
-45.8553 -0.693689 0
-45.7807 -0.681012 0
-45.6907 -0.674348 0
-45.5913 -0.678476 0
-45.5146 -0.679622 0
-45.4378 -0.678396 0
-45.3467 -0.668484 0
-45.2583 -0.679769 0
-45.1757 -0.688036 0
-45.0911 -0.678384 0
-45.0122 -0.67175 0
-44.9193 -0.673107 0
-44.8341 -0.669028 0
-44.749 -0.67603 0
-44.6578 -0.671117 0
-44.581 -0.669741 0
-44.496 -0.65875 0
-44.4036 -0.654872 0
-44.3222 -0.660048 0
-44.2428 -0.654389 0
-44.1511 -0.663888 0
-44.0689 -0.669764 0
-43.9839 -0.654373 0
-43.8899 -0.662498 0
-43.8175 -0.651296 0
-43.7257 -0.665601 0
-43.6428 -0.660991 0
-43.5555 -0.655045 0
-43.4651 -0.658447 0
-43.3761 -0.667725 0
-43.2858 -0.660963 0
-43.1994 -0.667989 0
-43.1225 -0.671822 0
-43.0452 -0.653489 0
-42.9408 -0.659751 0
-42.8623 -0.657997 0
-42.7852 -0.658749 0
-42.6954 -0.650959 0
-42.6088 -0.652626 0
-42.5287 -0.652008 0
-42.4398 -0.653209 0
-42.35 -0.651364 0
-42.256 -0.660034 0
-42.1637 -0.644506 0
-42.0799 -0.643849 0
-41.9957 -0.648056 0
-41.923 -0.640598 0
-41.8268 -0.647631 0
-41.7537 -0.634028 0
-41.6505 -0.639595 0
-41.5706 -0.645508 0
-41.4878 -0.644799 0
-41.392 -0.65391 0
-41.3119 -0.654549 0
-41.2289 -0.661246 0
-41.1319 -0.644299 0
-41.0436 -0.653926 0
-40.949 -0.653262 0
-40.8693 -0.653505 0
-40.7857 -0.645011 0
-40.7063 -0.648951 0
-40.6148 -0.646442 0
-40.5246 -0.632644 0
-40.4434 -0.623828 0
-40.3578 -0.627886 0
-40.2718 -0.636699 0
-40.1824 -0.639422 0
-40.0969 -0.644284 0
-40.0057 -0.642683 0
-39.9247 -0.649425 0
-39.8373 -0.641308 0
-39.7486 -0.651936 0
-39.6652 -0.645466 0
-39.5761 -0.633443 0
-39.4822 -0.645406 0
-39.3938 -0.636257 0
-39.3053 -0.640512 0
-39.2195 -0.638738 0
-39.1306 -0.631647 0
-39.0418 -0.631237 0
-38.9596 -0.634785 0
-38.8711 -0.63173 0
-38.78 -0.641113 0
-38.6892 -0.640052 0
-38.6046 -0.645355 0
-38.5159 -0.645437 0
-38.4237 -0.638419 0
-38.3367 -0.636048 0
-38.2425 -0.63728 0
-38.1532 -0.641133 0
-38.0825 -0.645924 0
-37.9934 -0.641536 0
-37.9033 -0.643151 0
-37.8196 -0.63244 0
-37.7244 -0.629919 0
-37.6288 -0.630866 0
-37.5412 -0.632304 0
-37.463 -0.626899 0
-37.3685 -0.62981 0
-37.2842 -0.623972 0
-37.2087 -0.627295 0
-37.1122 -0.621774 0
-37.0206 -0.627636 0
-36.9358 -0.630133 0
-36.8467 -0.628758 0
-36.7631 -0.622592 0
-36.6688 -0.625183 0
-36.5714 -0.633604 0
-36.4893 -0.630959 0
-36.397 -0.632703 0
-36.3218 -0.622917 0
-36.2349 -0.627998 0
-36.1443 -0.61849 0
-36.0501 -0.624095 0
-35.9581 -0.634583 0
-35.8708 -0.629077 0
-35.779 -0.624893 0
-35.694 -0.638193 0
-35.6108 -0.63556 0
-35.5323 -0.631162 0
-35.4261 -0.631691 0
-35.3392 -0.633368 0
-35.2547 -0.6286 0
-35.1665 -0.632236 0
-35.0687 -0.628049 0
-34.9819 -0.631266 0
-34.8903 -0.635715 0
-34.8024 -0.630824 0
-34.702 -0.625294 0
-34.6162 -0.633339 0
-34.5307 -0.638772 0
-34.4324 -0.637351 0
-34.3457 -0.618769 0
-34.2582 -0.63193 0
-34.1689 -0.631485 0
-34.0855 -0.627328 0
-33.9974 -0.626698 0
-33.9 -0.634064 0
-33.8075 -0.632775 0
-33.7176 -0.62586 0
-33.6206 -0.623053 0
-33.5187 -0.631973 0
-33.4293 -0.626614 0
-33.343 -0.628938 0
-33.2568 -0.638043 0
-33.1691 -0.632176 0
-33.0867 -0.635656 0
-32.9932 -0.630676 0
-32.9028 -0.624436 0
-32.8189 -0.627353 0
-32.7275 -0.623362 0
-32.6367 -0.625764 0
-32.5467 -0.615574 0
-32.448 -0.629886 0
-32.3665 -0.623789 0
-32.283 -0.631828 0
-32.1897 -0.626113 0
-32.0943 -0.632375 0
-32.007 -0.635127 0
-31.9137 -0.6373 0
-31.8137 -0.632338 0
-31.7148 -0.629195 0
-31.6339 -0.638842 0
-31.5438 -0.633149 0
-31.4457 -0.640675 0
-31.3663 -0.64346 0
-31.2689 -0.642436 0
-31.1885 -0.636653 0
-31.0878 -0.647185 0
-31.0127 -0.644659 0
-30.9113 -0.651369 0
-30.8171 -0.645742 0
-30.7381 -0.640472 0
-30.6472 -0.644341 0
-30.5471 -0.63662 0
-30.4665 -0.639462 0
-30.3738 -0.638834 0
-30.2867 -0.62408 0
-30.1882 -0.641219 0
-30.0991 -0.637224 0
-30.0109 -0.629814 0
-29.9143 -0.63717 0
-29.8175 -0.638066 0
-29.7224 -0.641561 0
-29.6222 -0.639472 0
-29.5354 -0.649408 0
-29.4467 -0.652807 0
-29.3553 -0.647624 0
-29.2529 -0.641962 0
-29.164 -0.636932 0
-29.0702 -0.630428 0
-28.9902 -0.642725 0
-28.9008 -0.639832 0
-28.8044 -0.643505 0
-28.7141 -0.63963 0
-28.6228 -0.641326 0
-28.5258 -0.641376 0
-28.4423 -0.64629 0
-28.3372 -0.642534 0
-28.2534 -0.630825 0
-28.1588 -0.63698 0
-28.06 -0.634121 0
-27.9692 -0.626488 0
-27.8761 -0.627522 0
-27.7788 -0.631318 0
-27.6852 -0.630206 0
-27.5931 -0.64641 0
-27.5007 -0.642508 0
-27.3993 -0.651949 0
-27.3095 -0.654673 0
-27.2206 -0.651591 0
-27.1329 -0.648688 0
-27.0389 -0.661544 0
-26.9507 -0.651974 0
-26.8608 -0.659369 0
-26.7598 -0.655957 0
-26.6722 -0.657394 0
-26.5812 -0.652178 0
-26.486 -0.652269 0
-26.3984 -0.644174 0
-26.297 -0.644773 0
-26.2018 -0.64103 0
-26.1134 -0.655039 0
-26.0195 -0.658068 0
-25.9291 -0.649363 0
-25.8331 -0.650934 0
-25.7408 -0.654788 0
-25.6459 -0.666325 0
-25.5525 -0.660137 0
-25.4661 -0.660739 0
-25.3708 -0.662883 0
-25.2777 -0.663067 0
-25.1838 -0.671281 0
-25.0883 -0.671157 0
-24.9942 -0.670307 0
-24.8905 -0.672109 0
-24.797 -0.675708 0
-24.7113 -0.678047 0
-24.62 -0.681024 0
-24.5259 -0.677445 0
-24.4249 -0.666279 0
-24.3339 -0.683669 0
-24.2433 -0.682571 0
-24.1495 -0.684773 0
-24.0594 -0.675138 0
-23.9608 -0.676256 0
-23.8703 -0.677232 0
-23.7788 -0.686284 0
-23.6813 -0.681987 0
-23.5942 -0.676825 0
-23.5023 -0.689837 0
-23.4049 -0.683902 0
-23.3 -0.680333 0
-23.2075 -0.686069 0
-23.1156 -0.688169 0
-23.0185 -0.68787 0
-22.934 -0.679848 0
-22.8365 -0.677296 0
-22.7366 -0.667732 0
-22.6427 -0.682605 0
-22.5489 -0.682977 0
-22.4465 -0.682743 0
-22.346 -0.684921 0
-22.2545 -0.682026 0
-22.1604 -0.685415 0
-22.0579 -0.697398 0
-21.9713 -0.692177 0
-21.8732 -0.69524 0
-21.7788 -0.701734 0
-21.6907 -0.700707 0
-21.6002 -0.69374 0
-21.4965 -0.710519 0
-21.4036 -0.706923 0
-21.3097 -0.710948 0
-21.2156 -0.717203 0
-21.1321 -0.710922 0
-21.0305 -0.714581 0
-20.9383 -0.715878 0
-20.8318 -0.719983 0
-20.7364 -0.719423 0
-20.6512 -0.723873 0
-20.5503 -0.716076 0
-20.4558 -0.720848 0
-20.3645 -0.730972 0
-20.2619 -0.735395 0
-20.1761 -0.728434 0
-20.0759 -0.732172 0
-19.9881 -0.729284 0
-19.8843 -0.726682 0
-19.7974 -0.725513 0
-19.6967 -0.728775 0
-19.5936 -0.727821 0
-19.5008 -0.726124 0
-19.3941 -0.73964 0
-19.3126 -0.723396 0
-19.2132 -0.73211 0
-19.1267 -0.738645 0
-19.0269 -0.740324 0
-18.9246 -0.735318 0
-18.8374 -0.740404 0
-18.7377 -0.740543 0
-18.6478 -0.744603 0
-18.5418 -0.740586 0
-18.4345 -0.749901 0
-18.3448 -0.748095 0
-18.256 -0.750992 0
-18.1621 -0.748419 0
-18.0653 -0.741533 0
-17.9609 -0.744911 0
-17.8778 -0.737841 0
-17.7763 -0.739784 0
-17.68 -0.736245 0
-17.5888 -0.738401 0
-17.4901 -0.74085 0
-17.39 -0.739987 0
-17.2963 -0.742823 0
-17.1956 -0.7407 0
-17.0916 -0.750484 0
-16.9977 -0.751398 0
-16.9067 -0.756563 0
-16.8106 -0.758047 0
-16.7228 -0.751533 0
-16.6231 -0.748018 0
-16.5219 -0.746216 0
-16.4286 -0.755099 0
-16.334 -0.755171 0
-16.2418 -0.753843 0
-16.1448 -0.745494 0
-16.0452 -0.742515 0
-15.95 -0.743513 0
-15.8518 -0.745132 0
-15.7552 -0.741974 0
-15.6585 -0.740125 0
-15.5544 -0.73635 0
-15.4662 -0.74663 0
-15.3615 -0.738849 0
-15.276 -0.753074 0
-15.1743 -0.749392 0
-15.0759 -0.748963 0
-14.9739 -0.745942 0
-14.8686 -0.751628 0
-14.777 -0.753161 0
-14.6805 -0.759101 0
-14.5789 -0.76228 0
-14.4865 -0.771289 0
-14.404 -0.77193 0
-14.3184 -0.768204 0
-14.223 -0.755137 0
-14.115 -0.765179 0
-14.0128 -0.765927 0
-13.9144 -0.770714 0
-13.8249 -0.766288 0
-13.7257 -0.768909 0
-13.6321 -0.759971 0
-13.5395 -0.771679 0
-13.4441 -0.769569 0
-13.3499 -0.773624 0
-13.2535 -0.768644 0
-13.1524 -0.762866 0
-13.0594 -0.768404 0
-12.9605 -0.772826 0
-12.8597 -0.772468 0
-12.7654 -0.76692 0
-12.6697 -0.771794 0
-12.5743 -0.776291 0
-12.4737 -0.768743 0
-12.3809 -0.774108 0
-12.272 -0.781608 0
-12.1783 -0.787772 0
-12.0839 -0.781051 0
-11.978 -0.782853 0
-11.886 -0.789174 0
-11.8029 -0.777703 0
-11.7092 -0.774708 0
-11.5972 -0.777169 0
-11.5016 -0.771293 0
-11.3991 -0.777876 0
-11.2954 -0.775254 0
-11.193 -0.7719 0
-11.1037 -0.772528 0
-11.0056 -0.764322 0
-10.9139 -0.766971 0
-10.8234 -0.778235 0
-10.7153 -0.769423 0
-10.6293 -0.780623 0
-10.5227 -0.774406 0
-10.431 -0.758705 0
-10.332 -0.774985 0
-10.2304 -0.764743 0
-10.1384 -0.773294 0
-10.04 -0.779577 0
-9.94737 -0.781402 0
-9.84517 -0.776932 0
-9.74569 -0.785502 0
-9.64678 -0.778631 0
-9.54932 -0.778541 0
-9.45628 -0.781594 0
-9.35417 -0.776874 0
-9.24599 -0.77095 0
-9.15259 -0.78068 0
-9.05759 -0.781562 0
-8.95529 -0.779761 0
-8.86713 -0.776337 0
-8.77079 -0.777632 0
-8.6586 -0.778668 0
-8.55655 -0.785835 0
-8.4651 -0.770831 0
-8.37151 -0.780932 0
-8.27844 -0.771724 0
-8.16809 -0.783189 0
-8.07855 -0.784495 0
-7.98753 -0.781872 0
-7.86943 -0.774311 0
-7.77251 -0.768211 0
-7.66851 -0.768363 0
-7.5874 -0.768098 0
-7.4897 -0.769502 0
-7.39495 -0.784743 0
-7.29406 -0.776806 0
-7.1992 -0.7717 0
-7.10345 -0.772585 0
-7.00326 -0.748207 0
-6.90058 -0.753291 0
-6.79308 -0.76692 0
-6.69525 -0.779771 0
-6.59382 -0.78093 0
-6.49285 -0.79653 0
-6.40442 -0.781917 0
-6.30861 -0.783656 0
-6.20991 -0.769309 0
-6.11746 -0.764087 0
-6.01126 -0.769632 0
-5.90578 -0.775915 0
-5.8098 -0.77546 0
-5.70854 -0.779553 0
-5.61742 -0.779258 0
-5.51009 -0.773721 0
-5.41463 -0.781271 0
-5.32919 -0.761947 0
-5.23334 -0.771583 0
-5.12994 -0.785984 0
-5.03481 -0.775162 0
-4.94265 -0.760956 0
-4.84079 -0.775396 0
-4.72873 -0.770487 0
-4.62955 -0.767312 0
-4.54128 -0.786725 0
-4.43474 -0.787849 0
-4.32986 -0.786059 0
-4.25351 -0.778899 0
-4.14691 -0.787938 0
-4.04741 -0.793502 0
-3.94718 -0.787537 0
-3.85169 -0.776951 0
-3.75022 -0.768899 0
-3.64924 -0.785417 0
-3.55847 -0.793604 0
-3.4412 -0.795617 0
-3.34897 -0.784768 0
-3.25392 -0.775035 0
-3.15237 -0.7769 0
-3.05812 -0.769624 0
-2.97149 -0.772021 0
-2.87538 -0.775505 0
-2.76648 -0.777427 0
-2.67433 -0.779831 0
-2.57318 -0.763929 0
-2.46701 -0.771516 0
-2.37051 -0.769896 0
-2.28432 -0.768031 0
-2.18078 -0.766534 0
-2.07928 -0.761301 0
-1.972 -0.781006 0
-1.86892 -0.759699 0
-1.77041 -0.774427 0
-1.67773 -0.777517 0
-1.57996 -0.768256 0
-1.47744 -0.767193 0
-1.38365 -0.754137 0
-1.28796 -0.764324 0
-1.1933 -0.765396 0
-1.09192 -0.776319 0
-0.995796 -0.785668 0
-0.879603 -0.787737 0
-0.795364 -0.783766 0
-0.688238 -0.791733 0
-0.601948 -0.776652 0
-0.482229 -0.77608 0
-0.398017 -0.776571 0
-0.286994 -0.77324 0
-0.198325 -0.776545 0
-0.0945623 -0.767091 0
0 -0.768279 0
-63.116 -0.825108 0
-63.0332 -0.813499 0
-62.9483 -0.83066 0
-62.8564 -0.837539 0
-62.7828 -0.840453 0
-62.7076 -0.844155 0
-62.6239 -0.833892 0
-62.5383 -0.830118 0
-62.4586 -0.831407 0
-62.3799 -0.846329 0
-62.2969 -0.845192 0
-62.2169 -0.836715 0
-62.1339 -0.844214 0
-62.0388 -0.84632 0
-61.9655 -0.834689 0
-61.879 -0.836944 0
-61.8059 -0.829629 0
-61.7174 -0.84201 0
-61.6404 -0.844635 0
-61.56 -0.847144 0
-61.4782 -0.839543 0
-61.3895 -0.83558 0
-61.3073 -0.841866 0
-61.2204 -0.836816 0
-61.1484 -0.828529 0
-61.0655 -0.828546 0
-60.9807 -0.823817 0
-60.8972 -0.820246 0
-60.82 -0.825202 0
-60.7354 -0.824808 0
-60.6498 -0.823081 0
-60.5831 -0.837712 0
-60.5 -0.82744 0
-60.4189 -0.820645 0
-60.3297 -0.830319 0
-60.2513 -0.832037 0
-60.1818 -0.833362 0
-60.0928 -0.833919 0
-60.0152 -0.838982 0
-59.9229 -0.837744 0
-59.8347 -0.841638 0
-59.7537 -0.831021 0
-59.6761 -0.834058 0
-59.589 -0.841228 0
-59.4989 -0.835849 0
-59.4169 -0.825019 0
-59.3398 -0.810006 0
-59.2664 -0.826974 0
-59.188 -0.817938 0
-59.0981 -0.81684 0
-59.0282 -0.806165 0
-58.9461 -0.800218 0
-58.8654 -0.786963 0
-58.771 -0.791239 0
-58.6931 -0.780267 0
-58.6097 -0.787462 0
-58.5281 -0.806029 0
-58.4406 -0.826827 0
-58.3706 -0.806289 0
-58.2801 -0.79587 0
-58.1932 -0.80916 0
-58.0948 -0.810148 0
-58.0108 -0.795014 0
-57.9534 -0.790801 0
-57.8715 -0.793235 0
-57.7723 -0.796998 0
-57.6903 -0.784028 0
-57.6132 -0.79972 0
-57.5232 -0.806731 0
-57.4511 -0.808204 0
-57.3677 -0.811584 0
-57.2896 -0.795624 0
-57.2074 -0.787256 0
-57.127 -0.787908 0
-57.038 -0.795387 0
-56.9622 -0.805987 0
-56.8846 -0.802213 0
-56.7903 -0.795772 0
-56.7154 -0.790243 0
-56.635 -0.794293 0
-56.5421 -0.790149 0
-56.4671 -0.787155 0
-56.3799 -0.793275 0
-56.3092 -0.79379 0
-56.2203 -0.789187 0
-56.1292 -0.785315 0
-56.0541 -0.796074 0
-55.9737 -0.79771 0
-55.896 -0.792866 0
-55.812 -0.788619 0
-55.7402 -0.790311 0
-55.662 -0.772833 0
-55.5602 -0.783693 0
-55.4842 -0.777151 0
-55.4116 -0.778863 0
-55.3274 -0.774268 0
-55.2468 -0.773912 0
-55.1601 -0.772171 0
-55.0794 -0.762352 0
-54.9915 -0.760763 0
-54.9084 -0.76394 0
-54.8218 -0.77712 0
-54.7462 -0.770817 0
-54.659 -0.766933 0
-54.5726 -0.758426 0
-54.4856 -0.765733 0
-54.3987 -0.769156 0
-54.3181 -0.769728 0
-54.2309 -0.767464 0
-54.1513 -0.749922 0
-54.0611 -0.761071 0
-53.9797 -0.760666 0
-53.9047 -0.760307 0
-53.8225 -0.752812 0
-53.7429 -0.758154 0
-53.6532 -0.752674 0
-53.565 -0.757254 0
-53.481 -0.736487 0
-53.4065 -0.739603 0
-53.3225 -0.751956 0
-53.2481 -0.747585 0
-53.1677 -0.730623 0
-53.0828 -0.729709 0
-52.9911 -0.743555 0
-52.8958 -0.749649 0
-52.82 -0.737501 0
-52.741 -0.73526 0
-52.6498 -0.747059 0
-52.575 -0.746492 0
-52.4992 -0.741756 0
-52.4177 -0.7349 0
-52.3298 -0.725392 0
-52.2569 -0.713298 0
-52.1685 -0.704375 0
-52.0874 -0.707351 0
-52.0056 -0.701727 0
-51.914 -0.705323 0
-51.8372 -0.719388 0
-51.7578 -0.714324 0
-51.6789 -0.716071 0
-51.5913 -0.720672 0
-51.5029 -0.715043 0
-51.4146 -0.7126 0
-51.3339 -0.701951 0
-51.2461 -0.70088 0
-51.1572 -0.707255 0
-51.0734 -0.70124 0
-50.9963 -0.708593 0
-50.9129 -0.712765 0
-50.8281 -0.705196 0
-50.7472 -0.692299 0
-50.6618 -0.695257 0
-50.5745 -0.683636 0
-50.4916 -0.693247 0
-50.4109 -0.677325 0
-50.3331 -0.689772 0
-50.2506 -0.691149 0
-50.1719 -0.68725 0
-50.0807 -0.680702 0
-49.9972 -0.682909 0
-49.9153 -0.680821 0
-49.8314 -0.673625 0
-49.7466 -0.663204 0
-49.6599 -0.671717 0
-49.5761 -0.677862 0
-49.4936 -0.669818 0
-49.421 -0.673204 0
-49.3403 -0.67852 0
-49.2429 -0.679149 0
-49.1589 -0.672397 0
-49.076 -0.670034 0
-48.992 -0.677016 0
-48.9027 -0.672121 0
-48.8216 -0.664766 0
-48.7365 -0.664467 0
-48.6509 -0.659809 0
-48.5683 -0.653787 0
-48.4832 -0.662866 0
-48.3899 -0.660913 0
-48.3141 -0.652387 0
-48.2348 -0.667047 0
-48.1567 -0.655204 0
-48.0676 -0.653465 0
-47.9791 -0.651562 0
-47.9061 -0.654236 0
-47.8244 -0.638764 0
-47.731 -0.63589 0
-47.6391 -0.640124 0
-47.5527 -0.638244 0
-47.4694 -0.631404 0
-47.386 -0.638759 0
-47.3149 -0.635656 0
-47.224 -0.630984 0
-47.1419 -0.63093 0
-47.0494 -0.640133 0
-46.9591 -0.636514 0
-46.868 -0.63012 0
-46.7889 -0.630009 0
-46.7031 -0.62913 0
-46.6206 -0.623733 0
-46.5291 -0.635476 0
-46.4432 -0.626631 0
-46.3604 -0.621596 0
-46.2763 -0.621097 0
-46.1874 -0.626852 0
-46.1039 -0.62407 0
-46.0222 -0.627875 0
-45.9334 -0.635901 0
-45.8535 -0.631403 0
-45.7708 -0.626288 0
-45.6866 -0.630745 0
-45.5971 -0.619216 0
-45.5182 -0.630018 0
-45.4337 -0.624507 0
-45.348 -0.614959 0
-45.262 -0.626747 0
-45.1712 -0.625792 0
-45.0825 -0.622782 0
-45.0063 -0.621181 0
-44.9162 -0.617086 0
-44.83 -0.612763 0
-44.7417 -0.616559 0
-44.6516 -0.608969 0
-44.5707 -0.615227 0
-44.4844 -0.603936 0
-44.4139 -0.605889 0
-44.3306 -0.606295 0
-44.2442 -0.596791 0
-44.1606 -0.606284 0
-44.0653 -0.618609 0
-43.9808 -0.609985 0
-43.8985 -0.603125 0
-43.8115 -0.60327 0
-43.729 -0.606291 0
-43.6438 -0.606834 0
-43.5543 -0.605885 0
-43.4617 -0.605234 0
-43.3675 -0.606701 0
-43.2855 -0.613555 0
-43.2049 -0.616146 0
-43.1189 -0.616492 0
-43.0332 -0.605264 0
-42.953 -0.598667 0
-42.8651 -0.608318 0
-42.7754 -0.606706 0
-42.6981 -0.601689 0
-42.6144 -0.602363 0
-42.5221 -0.597083 0
-42.4343 -0.600816 0
-42.3479 -0.593321 0
-42.2594 -0.592059 0
-42.1663 -0.600391 0
-42.085 -0.589155 0
-42.0014 -0.591209 0
-41.9186 -0.590559 0
-41.8427 -0.591052 0
-41.7453 -0.581188 0
-41.6635 -0.584173 0
-41.5677 -0.592598 0
-41.486 -0.599765 0
-41.3951 -0.594838 0
-41.309 -0.601273 0
-41.2242 -0.602003 0
-41.1331 -0.589965 0
-41.0518 -0.601407 0
-40.9664 -0.60124 0
-40.8801 -0.594677 0
-40.7884 -0.591571 0
-40.7016 -0.588804 0
-40.6163 -0.585918 0
-40.5278 -0.577829 0
-40.4399 -0.572642 0
-40.3545 -0.587268 0
-40.2729 -0.583818 0
-40.1847 -0.58201 0
-40.0939 -0.585022 0
-40.0114 -0.589441 0
-39.927 -0.586675 0
-39.8375 -0.594129 0
-39.7528 -0.591354 0
-39.6622 -0.591322 0
-39.5777 -0.586483 0
-39.4909 -0.581275 0
-39.3964 -0.575751 0
-39.3028 -0.583939 0
-39.2174 -0.5844 0
-39.1333 -0.590565 0
-39.0438 -0.583235 0
-38.9534 -0.577778 0
-38.8686 -0.574862 0
-38.7824 -0.579474 0
-38.6875 -0.585645 0
-38.6031 -0.585904 0
-38.5169 -0.583715 0
-38.4194 -0.582276 0
-38.3344 -0.576436 0
-38.2482 -0.581741 0
-38.1619 -0.584938 0
-38.0756 -0.590065 0
-37.9909 -0.58684 0
-37.8958 -0.577092 0
-37.8104 -0.58251 0
-37.7208 -0.576935 0
-37.636 -0.573095 0
-37.5448 -0.573784 0
-37.4624 -0.576002 0
-37.3707 -0.572519 0
-37.2846 -0.568648 0
-37.1957 -0.566791 0
-37.109 -0.572871 0
-37.0263 -0.571072 0
-36.9359 -0.57751 0
-36.8523 -0.570642 0
-36.7585 -0.558981 0
-36.6653 -0.56546 0
-36.5767 -0.577995 0
-36.4936 -0.572102 0
-36.4003 -0.570747 0
-36.3085 -0.57334 0
-36.2206 -0.570963 0
-36.1394 -0.570503 0
-36.0548 -0.570102 0
-35.9605 -0.577519 0
-35.8699 -0.570692 0
-35.7865 -0.567935 0
-35.6931 -0.578396 0
-35.6058 -0.576258 0
-35.5191 -0.576732 0
-35.4238 -0.578945 0
-35.3358 -0.577038 0
-35.2492 -0.57055 0
-35.1543 -0.569668 0
-35.0671 -0.573515 0
-34.9782 -0.570183 0
-34.8825 -0.574379 0
-34.7895 -0.575604 0
-34.7051 -0.564616 0
-34.6158 -0.5754 0
-34.5297 -0.574195 0
-34.4402 -0.574374 0
-34.3526 -0.571054 0
-34.2643 -0.570961 0
-34.1698 -0.575492 0
-34.0767 -0.567472 0
-33.9876 -0.569594 0
-33.8998 -0.574703 0
-33.8054 -0.575885 0
-33.7196 -0.56782 0
-33.6228 -0.567558 0
-33.5306 -0.559216 0
-33.4331 -0.562965 0
-33.35 -0.57432 0
-33.2545 -0.57405 0
-33.1687 -0.572706 0
-33.0856 -0.572403 0
-32.9971 -0.560718 0
-32.9111 -0.56893 0
-32.8152 -0.567843 0
-32.7193 -0.570217 0
-32.6298 -0.563535 0
-32.5462 -0.561012 0
-32.4589 -0.574544 0
-32.3654 -0.572257 0
-32.2677 -0.573311 0
-32.184 -0.571961 0
-32.0945 -0.572495 0
-32.0003 -0.577228 0
-31.9129 -0.581737 0
-31.8183 -0.57373 0
-31.7311 -0.579964 0
-31.6363 -0.579417 0
-31.5478 -0.576204 0
-31.4558 -0.585716 0
-31.3682 -0.58723 0
-31.2782 -0.584194 0
-31.186 -0.579807 0
-31.0976 -0.584159 0
-30.9989 -0.586709 0
-30.9117 -0.587489 0
-30.8189 -0.587512 0
-30.729 -0.591286 0
-30.635 -0.582099 0
-30.5492 -0.579077 0
-30.4568 -0.581134 0
-30.3676 -0.581155 0
-30.2822 -0.576643 0
-30.1925 -0.578456 0
-30.0999 -0.577701 0
-30.0076 -0.568314 0
-29.9146 -0.573784 0
-29.8194 -0.574582 0
-29.7237 -0.579462 0
-29.6319 -0.580127 0
-29.5377 -0.586184 0
-29.4423 -0.585292 0
-29.3462 -0.584681 0
-29.2575 -0.579307 0
-29.1682 -0.576642 0
-29.0786 -0.58113 0
-28.9827 -0.584705 0
-28.8942 -0.582988 0
-28.8015 -0.584046 0
-28.7091 -0.581906 0
-28.615 -0.583997 0
-28.532 -0.58327 0
-28.4375 -0.580929 0
-28.3435 -0.57875 0
-28.2546 -0.571759 0
-28.1641 -0.579783 0
-28.0635 -0.576459 0
-27.9696 -0.567183 0
-27.8772 -0.567673 0
-27.7866 -0.570493 0
-27.6973 -0.573772 0
-27.5995 -0.580914 0
-27.5089 -0.583839 0
-27.4094 -0.592296 0
-27.3132 -0.592341 0
-27.2238 -0.595731 0
-27.1317 -0.592046 0
-27.0424 -0.598596 0
-26.9515 -0.599281 0
-26.8603 -0.602143 0
-26.7652 -0.595012 0
-26.6687 -0.602615 0
-26.5756 -0.591569 0
-26.4833 -0.592121 0
-26.3907 -0.583628 0
-26.303 -0.582524 0
-26.2073 -0.58387 0
-26.1127 -0.591066 0
-26.0189 -0.594769 0
-25.9313 -0.598145 0
-25.834 -0.595129 0
-25.7419 -0.600866 0
-25.6526 -0.610656 0
-25.5585 -0.610054 0
-25.4708 -0.599719 0
-25.3762 -0.602932 0
-25.2806 -0.603784 0
-25.1925 -0.607015 0
-25.0931 -0.609208 0
-24.9907 -0.610358 0
-24.8976 -0.604019 0
-24.8058 -0.619932 0
-24.713 -0.624374 0
-24.619 -0.620042 0
-24.5267 -0.624008 0
-24.4312 -0.612322 0
-24.3421 -0.617924 0
-24.2426 -0.622614 0
-24.1487 -0.618131 0
-24.0578 -0.615973 0
-23.9671 -0.622721 0
-23.8746 -0.617517 0
-23.7817 -0.627369 0
-23.6866 -0.617923 0
-23.5906 -0.626139 0
-23.4937 -0.628208 0
-23.3929 -0.621601 0
-23.2997 -0.618953 0
-23.2068 -0.628937 0
-23.1155 -0.627841 0
-23.0098 -0.623783 0
-22.9253 -0.620489 0
-22.8316 -0.614991 0
-22.7364 -0.606552 0
-22.6429 -0.620477 0
-22.5459 -0.623756 0
-22.4551 -0.622141 0
-22.3582 -0.620307 0
-22.2581 -0.624232 0
-22.1657 -0.622628 0
-22.0681 -0.636958 0
-21.9654 -0.633731 0
-21.8731 -0.641064 0
-21.7816 -0.637986 0
-21.6864 -0.64195 0
-21.5933 -0.64042 0
-21.4975 -0.645978 0
-21.401 -0.655781 0
-21.3102 -0.656263 0
-21.2201 -0.662785 0
-21.1225 -0.658239 0
-21.0271 -0.652112 0
-20.9389 -0.648664 0
-20.8467 -0.65254 0
-20.7423 -0.662226 0
-20.6514 -0.664164 0
-20.5548 -0.654824 0
-20.4611 -0.660139 0
-20.357 -0.66934 0
-20.2615 -0.672463 0
-20.1703 -0.672189 0
-20.0774 -0.675312 0
-19.9804 -0.675129 0
-19.8838 -0.663072 0
-19.792 -0.671599 0
-19.6936 -0.660409 0
-19.5937 -0.66791 0
-19.5027 -0.669229 0
-19.4052 -0.676359 0
-19.3104 -0.673787 0
-19.2154 -0.670968 0
-19.1188 -0.6843 0
-19.0265 -0.677481 0
-18.9327 -0.67036 0
-18.8323 -0.677074 0
-18.7386 -0.683947 0
-18.642 -0.67531 0
-18.5519 -0.678652 0
-18.4523 -0.687173 0
-18.3605 -0.687089 0
-18.2576 -0.686082 0
-18.1612 -0.684242 0
-18.0691 -0.684854 0
-17.9743 -0.687002 0
-17.8757 -0.678603 0
-17.7801 -0.674788 0
-17.6847 -0.677032 0
-17.5898 -0.675868 0
-17.4946 -0.67938 0
-17.3973 -0.679187 0
-17.2944 -0.676202 0
-17.1978 -0.681776 0
-17.1082 -0.686451 0
-17.0147 -0.692977 0
-16.911 -0.692706 0
-16.8057 -0.697115 0
-16.7171 -0.690968 0
-16.6241 -0.690013 0
-16.5324 -0.689802 0
-16.435 -0.693651 0
-16.336 -0.691618 0
-16.2411 -0.688202 0
-16.1396 -0.684649 0
-16.0435 -0.684319 0
-15.9455 -0.677657 0
-15.8526 -0.679218 0
-15.7549 -0.692281 0
-15.6578 -0.682046 0
-15.5619 -0.678519 0
-15.4642 -0.685237 0
-15.3667 -0.684244 0
-15.271 -0.688789 0
-15.1776 -0.683903 0
-15.0762 -0.684322 0
-14.9755 -0.683998 0
-14.8771 -0.684471 0
-14.782 -0.688611 0
-14.6843 -0.696261 0
-14.5893 -0.702419 0
-14.5007 -0.712746 0
-14.3969 -0.712285 0
-14.3049 -0.706701 0
-14.214 -0.703822 0
-14.1153 -0.701936 0
-14.0115 -0.703502 0
-13.9194 -0.710916 0
-13.821 -0.708961 0
-13.7334 -0.709024 0
-13.6384 -0.70689 0
-13.5438 -0.711643 0
-13.4503 -0.709741 0
-13.3525 -0.706051 0
-13.2515 -0.703245 0
-13.1583 -0.706587 0
-13.0628 -0.707053 0
-12.971 -0.70666 0
-12.8691 -0.709739 0
-12.7706 -0.707636 0
-12.6772 -0.710806 0
-12.5777 -0.713325 0
-12.4858 -0.714068 0
-12.3788 -0.720271 0
-12.2762 -0.714322 0
-12.1876 -0.718379 0
-12.0903 -0.720675 0
-11.9884 -0.719661 0
-11.8906 -0.716581 0
-11.7981 -0.723954 0
-11.6902 -0.711653 0
-11.5972 -0.717857 0
-11.5003 -0.709759 0
-11.3944 -0.718375 0
-11.2961 -0.712887 0
-11.1993 -0.709588 0
-11.1002 -0.710117 0
-11.009 -0.712686 0
-10.9122 -0.710281 0
-10.8145 -0.714959 0
-10.7236 -0.71637 0
-10.6223 -0.71367 0
-10.5229 -0.711491 0
-10.4246 -0.713028 0
-10.3286 -0.712343 0
-10.2411 -0.709309 0
-10.1418 -0.71486 0
-10.0505 -0.709348 0
-9.95289 -0.720443 0
-9.85413 -0.72282 0
-9.74941 -0.717795 0
-9.65188 -0.712266 0
-9.5568 -0.711888 0
-9.45321 -0.710733 0
-9.34687 -0.709788 0
-9.25069 -0.709417 0
-9.14654 -0.719197 0
-9.0507 -0.719152 0
-8.96365 -0.717057 0
-8.86138 -0.709439 0
-8.76521 -0.711159 0
-8.6642 -0.72547 0
-8.57686 -0.710999 0
-8.47066 -0.715756 0
-8.36322 -0.715964 0
-8.27385 -0.713651 0
-8.17667 -0.722116 0
-8.07619 -0.719751 0
-7.97234 -0.713553 0
-7.88225 -0.713507 0
-7.77907 -0.703672 0
-7.68007 -0.708801 0
-7.58753 -0.715677 0
-7.48948 -0.712541 0
-7.39998 -0.723358 0
-7.28805 -0.718103 0
-7.18703 -0.71175 0
-7.09051 -0.709675 0
-6.99345 -0.695447 0
-6.89228 -0.698295 0
-6.79656 -0.710018 0
-6.70407 -0.712926 0
-6.60068 -0.715212 0
-6.49694 -0.732682 0
-6.39573 -0.724035 0
-6.30183 -0.715114 0
-6.21114 -0.709805 0
-6.10462 -0.706991 0
-6.01269 -0.713111 0
-5.91136 -0.706278 0
-5.81061 -0.720466 0
-5.71082 -0.717453 0
-5.6119 -0.712945 0
-5.51859 -0.716151 0
-5.42617 -0.716603 0
-5.32684 -0.713536 0
-5.23109 -0.709698 0
-5.13657 -0.716614 0
-5.03114 -0.709424 0
-4.93368 -0.710146 0
-4.83283 -0.711148 0
-4.732 -0.710052 0
-4.63293 -0.721245 0
-4.53336 -0.72537 0
-4.43788 -0.719508 0
-4.33598 -0.72072 0
-4.24184 -0.71919 0
-4.15071 -0.719105 0
-4.0429 -0.723377 0
-3.94536 -0.724826 0
-3.85031 -0.722497 0
-3.75248 -0.710444 0
-3.66099 -0.728512 0
-3.55343 -0.728566 0
-3.45216 -0.722989 0
-3.35484 -0.722788 0
-3.25061 -0.717627 0
-3.14975 -0.720619 0
-3.06093 -0.710063 0
-2.96068 -0.713849 0
-2.86239 -0.716625 0
-2.76751 -0.709819 0
-2.67175 -0.71337 0
-2.57344 -0.70596 0
-2.46983 -0.703518 0
-2.37753 -0.7052 0
-2.27328 -0.704299 0
-2.17609 -0.702858 0
-2.08283 -0.709566 0
-1.98378 -0.710056 0
-1.87526 -0.704525 0
-1.7743 -0.706509 0
-1.6684 -0.70883 0
-1.57112 -0.708326 0
-1.48479 -0.703854 0
-1.38508 -0.700125 0
-1.28486 -0.713135 0
-1.19482 -0.709847 0
-1.09401 -0.708993 0
-0.990312 -0.726332 0
-0.895095 -0.719317 0
-0.790471 -0.722691 0
-0.698918 -0.723899 0
-0.596661 -0.717264 0
-0.492341 -0.706539 0
-0.390876 -0.713565 0
-0.296767 -0.709517 0
-0.188305 -0.708279 0
-0.0960945 -0.70352 0
0 -0.714834 0
-63.116 -0.75249 0
-63.0389 -0.771691 0
-62.9522 -0.769027 0
-62.8601 -0.777915 0
-62.7755 -0.784511 0
-62.7024 -0.791965 0
-62.6227 -0.788462 0
-62.5421 -0.778059 0
-62.4684 -0.782897 0
-62.3843 -0.784328 0
-62.2998 -0.788419 0
-62.2127 -0.779412 0
-62.1341 -0.791737 0
-62.0421 -0.784059 0
-61.9578 -0.781714 0
-61.8915 -0.78679 0
-61.8074 -0.786051 0
-61.7277 -0.80296 0
-61.6375 -0.795468 0
-61.5583 -0.796364 0
-61.4686 -0.776709 0
-61.3776 -0.776793 0
-61.2937 -0.779856 0
-61.2178 -0.784154 0
-61.1441 -0.781786 0