<?xml version="1.0"?>
<VTKFile type="StructuredGrid"  version="0.1" byte_order="LittleEndian" compressor="vtkZLibDataCompressor">
  <StructuredGrid WholeExtent="0 700 0 30 0 0">
    <Piece Extent="0 700 0 30 0 0">
      <PointData Vectors="Velocity">
        <DataArray type="Float32" Name="Velocity" NumberOfComponents="3" format="ascii">
-1094.75 80.4967 0
-1094.89 72.8288 0
-1095.08 65.3348 0
-1095.32 58.1252 0
-1095.54 51.2321 0
-1095.72 44.6093 0
-1095.89 38.2096 0
-1096.1 32.0796 0
-1096.33 26.2907 0
-1096.55 20.8727 0
-1096.75 15.8293 0
-1096.92 11.1552 0
-1097.07 6.84236 0
-1097.18 2.87917 0
-1097.25 -0.749449 0
-1097.26 -4.06137 0
-1097.22 -7.07621 0
-1097.12 -9.81409 0
-1096.96 -12.2945 0
-1096.74 -14.536 0
-1096.46 -16.5559 0
-1096.12 -18.3707 0
-1095.72 -19.9966 0
-1095.27 -21.4466 0
-1094.76 -22.7342 0
-1094.21 -23.8709 0
-1093.61 -24.8677 0
-1092.97 -25.7331 0
-1092.28 -26.4773 0
-1091.56 -27.1075 0
-1090.8 -27.6302 0
-1090.01 -28.0529 0
-1089.18 -28.3809 0
-1088.31 -28.6192 0
-1087.42 -28.7744 0
-1086.49 -28.8496 0
-1085.53 -28.851 0
-1084.55 -28.7816 0
-1083.53 -28.6453 0
-1082.48 -28.4469 0
-1081.41 -28.19 0
-1080.3 -27.8782 0
-1079.17 -27.5154 0
-1078.01 -27.1046 0
-1076.82 -26.6499 0
-1075.61 -26.1545 0
-1074.36 -25.622 0
-1073.1 -25.0552 0
-1071.8 -24.4579 0
-1070.48 -23.8328 0
-1069.14 -23.183 0
-1067.78 -22.5118 0
-1066.39 -21.8213 0
-1064.97 -21.114 0
-1063.54 -20.3936 0
-1062.08 -19.6614 0
-1060.61 -18.9209 0
-1059.11 -18.1741 0
-1057.6 -17.4221 0
-1056.06 -16.6684 0
-1054.51 -15.914 0
-1052.94 -15.1606 0
-1051.36 -14.4113 0
-1049.76 -13.6663 0
-1048.15 -12.9279 0
-1046.52 -12.1968 0
-1044.88 -11.4748 0
-1043.22 -10.7639 0
-1041.56 -10.064 0
-1039.88 -9.3767 0
-1038.19 -8.70322 0
-1036.49 -8.04519 0
-1034.79 -7.40131 0
-1033.07 -6.77446 0
-1031.34 -6.1645 0
-1029.61 -5.573 0
-1027.87 -4.99892 0
-1026.13 -4.44386 0
-1024.37 -3.9076 0
-1022.62 -3.39144 0
-1020.85 -2.89438 0
-1019.09 -2.41829 0
-1017.32 -1.96202 0
-1015.54 -1.52753 0
-1013.76 -1.11259 0
-1011.98 -0.718951 0
-1010.2 -0.346383 0
-1008.42 0.00650651 0
-1006.63 0.337668 0
-1004.84 0.648444 0
-1003.05 0.938025 0
-1001.27 1.20794 0
-999.477 1.45755 0
-997.689 1.68685 0
-995.901 1.89611 0
-994.114 2.08558 0
-992.327 2.25583 0
-990.542 2.40772 0
-988.758 2.54025 0
-986.977 2.65457 0
-985.198 2.75122 0
-983.42 2.83056 0
-981.645 2.89208 0
-979.872 2.93712 0
-978.102 2.9669 0
-976.335 2.98046 0
-974.572 2.97877 0
-972.811 2.96224 0
-971.054 2.93172 0
-969.299 2.88759 0
-967.549 2.82962 0
-965.802 2.75907 0
-964.059 2.6766 0
-962.319 2.58212 0
-960.582 2.47674 0
-958.85 2.36079 0
-957.122 2.23467 0
-955.398 2.09927 0
-953.677 1.95445 0
-951.961 1.80112 0
-950.248 1.6399 0
-948.539 1.47109 0
-946.835 1.29517 0
-945.134 1.11299 0
-943.436 0.925266 0
-941.743 0.731509 0
-940.053 0.532741 0
-938.367 0.329766 0
-936.685 0.123298 0
-935.008 -0.08722 0
-933.333 -0.300475 0
-931.662 -0.51682 0
-929.994 -0.735116 0
-928.33 -0.955435 0
-926.669 -1.17656 0
-925.012 -1.40001 0
-923.357 -1.62187 0
-921.706 -1.84564 0
-920.058 -2.06802 0
-918.413 -2.29032 0
-916.771 -2.51216 0
-915.131 -2.73243 0
-913.495 -2.95148 0
-911.861 -3.16819 0
-910.229 -3.38236 0
-908.6 -3.59468 0
-906.974 -3.80399 0
-905.35 -4.01071 0
-903.727 -4.21387 0
-902.107 -4.41241 0
-900.489 -4.60854 0
-898.872 -4.79999 0
-897.259 -4.98785 0
-895.645 -5.17182 0
-894.034 -5.35001 0
-892.424 -5.52406 0
-890.816 -5.69386 0
-889.209 -5.85833 0
-887.603 -6.01757 0
-885.997 -6.17244 0
-884.393 -6.32248 0
-882.79 -6.46526 0
-881.187 -6.60446 0
-879.587 -6.73635 0
-877.986 -6.8637 0
-876.386 -6.98459 0
-874.786 -7.10173 0
-873.187 -7.21228 0
-871.588 -7.31646 0
-869.99 -7.41447 0
-868.391 -7.50837 0
-866.794 -7.59637 0
-865.195 -7.67858 0
-863.597 -7.75369 0
-861.998 -7.82473 0
-860.4 -7.88939 0
-858.802 -7.94962 0
-857.204 -8.00276 0
-855.605 -8.05242 0
-854.005 -8.095 0
-852.405 -8.13268 0
-850.806 -8.16614 0
-849.205 -8.193 0
-847.603 -8.21618 0
-846 -8.23366 0
-844.399 -8.24619 0
-842.795 -8.25516 0
-841.192 -8.25839 0
-839.588 -8.25747 0
-837.982 -8.25155 0
-836.376 -8.2414 0
-834.768 -8.22775 0
-833.16 -8.20992 0
-831.553 -8.18788 0
-829.943 -8.16145 0
-828.333 -8.1326 0
-826.721 -8.10038 0
-825.109 -8.06391 0
-823.495 -8.02345 0
-821.882 -7.9812 0
-820.266 -7.93589 0
-818.65 -7.88706 0
-817.031 -7.8352 0
-815.413 -7.78153 0
-813.794 -7.72574 0
-812.174 -7.66544 0
-810.552 -7.60484 0
-808.93 -7.54128 0
-807.308 -7.47648 0
-805.684 -7.40961 0
-804.058 -7.3413 0
-802.432 -7.27166 0
-800.804 -7.19979 0
-799.176 -7.12634 0
-797.548 -7.05206 0
-795.918 -6.97758 0
-794.288 -6.90187 0
-792.656 -6.82497 0
-791.022 -6.74698 0
-789.389 -6.66831 0
-787.755 -6.58897 0
-786.119 -6.50927 0
-784.483 -6.42979 0
-782.847 -6.35035 0
-781.209 -6.27022 0
-779.57 -6.19016 0
-777.932 -6.11004 0
-776.291 -6.03146 0
-774.649 -5.95142 0
-773.008 -5.8727 0
-771.365 -5.79409 0
-769.722 -5.71539 0
-768.08 -5.63758 0
-766.435 -5.5612 0
-764.789 -5.48489 0
-763.144 -5.41065 0
-761.498 -5.33527 0
-759.852 -5.26268 0
-758.206 -5.18968 0
-756.559 -5.11823 0
-754.91 -5.04764 0
-753.262 -4.97896 0
-751.613 -4.91225 0
-749.964 -4.8457 0
-748.314 -4.78108 0
-746.664 -4.71576 0
-745.014 -4.65382 0
-743.364 -4.59348 0
-741.712 -4.5332 0
-740.06 -4.47544 0
-738.409 -4.41912 0
-736.758 -4.36484 0
-735.106 -4.31049 0
-733.452 -4.25924 0
-731.8 -4.20845 0
-730.145 -4.16112 0
-728.493 -4.11405 0
-726.84 -4.06834 0
-725.187 -4.02518 0
-723.533 -3.98251 0
-721.879 -3.94288 0
-720.227 -3.90464 0
-718.574 -3.86708 0
-716.92 -3.83162 0
-715.268 -3.7988 0
-713.614 -3.76679 0
-711.959 -3.73652 0
-710.305 -3.70814 0
-708.653 -3.68114 0
-707.001 -3.65475 0
-705.347 -3.63139 0
-703.693 -3.60846 0
-702.041 -3.58849 0
-700.388 -3.57042 0
-698.735 -3.55268 0
-697.083 -3.53717 0
-695.431 -3.52231 0
-693.778 -3.50946 0
-692.125 -3.49945 0
-690.476 -3.48967 0
-688.824 -3.48059 0
-687.171 -3.47239 0
-685.52 -3.4671 0
-683.868 -3.46325 0
-682.219 -3.46066 0
-680.569 -3.45961 0
-678.918 -3.45775 0
-677.268 -3.45881 0
-675.618 -3.46099 0
-673.969 -3.46293 0
-672.319 -3.46614 0
-670.671 -3.47131 0
-669.022 -3.47839 0
-667.373 -3.48463 0
-665.725 -3.49299 0
-664.077 -3.50336 0
-662.428 -3.51176 0
-660.782 -3.52355 0
-659.134 -3.53595 0
-657.487 -3.54655 0
-655.841 -3.56038 0
-654.194 -3.57436 0
-652.548 -3.58792 0
-650.902 -3.603 0
-649.257 -3.61874 0
-647.611 -3.63445 0
-645.966 -3.65098 0
-644.323 -3.66813 0
-642.677 -3.68606 0
-641.035 -3.70435 0
-639.389 -3.72198 0
-637.745 -3.74156 0
-636.102 -3.75992 0
-634.461 -3.77899 0
-632.818 -3.79764 0
-631.175 -3.81835 0
-629.532 -3.8382 0
-627.89 -3.85841 0
-626.248 -3.87805 0
-624.608 -3.89907 0
-622.967 -3.92031 0
-621.325 -3.94031 0
-619.685 -3.96014 0
-618.043 -3.98085 0
-616.403 -4.00126 0
-614.762 -4.02266 0
-613.122 -4.04133 0
-611.482 -4.06251 0
-609.843 -4.08089 0
-608.203 -4.10263 0
-606.563 -4.12155 0
-604.925 -4.14161 0
-603.286 -4.16149 0
-601.647 -4.17888 0
-600.008 -4.19833 0
-598.371 -4.21541 0
-596.732 -4.23398 0
-595.094 -4.25154 0
-593.455 -4.26957 0
-591.817 -4.28734 0
-590.18 -4.30358 0
-588.543 -4.3207 0
-586.905 -4.33652 0
-585.268 -4.35269 0
-583.63 -4.36943 0
-581.992 -4.38283 0
-580.355 -4.39745 0
-578.718 -4.41372 0
-577.082 -4.42664 0
-575.444 -4.44026 0
-573.807 -4.45277 0
-572.17 -4.46479 0
-570.534 -4.47769 0
-568.897 -4.49214 0
-567.259 -4.50109 0
-565.621 -4.51245 0
-563.985 -4.52192 0
-562.348 -4.53134 0
-560.712 -4.54127 0
-559.077 -4.55081 0
-557.44 -4.55762 0
-555.804 -4.56722 0
-554.167 -4.57346 0
-552.532 -4.58013 0
-550.895 -4.58751 0
-549.259 -4.5926 0
-547.621 -4.59913 0
-545.984 -4.60253 0
-544.348 -4.60887 0
-542.71 -4.61182 0
-541.074 -4.61701 0
-539.437 -4.62055 0
-537.801 -4.62197 0
-536.165 -4.62465 0
-534.528 -4.62646 0
-532.893 -4.62774 0
-531.257 -4.62855 0
-529.62 -4.62885 0
-527.982 -4.62972 0
-526.344 -4.6307 0
-524.708 -4.62969 0
-523.069 -4.62744 0
-521.434 -4.62607 0
-519.796 -4.62276 0
-518.158 -4.62187 0
-516.52 -4.61839 0
-514.884 -4.61479 0
-513.248 -4.61343 0
-511.611 -4.60674 0
-509.972 -4.60316 0
-508.334 -4.59879 0
-506.696 -4.59514 0
-505.058 -4.58941 0
-503.421 -4.58556 0
-501.783 -4.58065 0
-500.144 -4.57542 0
-498.507 -4.5685 0
-496.869 -4.56102 0
-495.231 -4.55561 0
-493.593 -4.54707 0
-491.955 -4.54103 0
-490.317 -4.53431 0
-488.678 -4.52477 0
-487.038 -4.51919 0
-485.4 -4.51161 0
-483.762 -4.50461 0
-482.124 -4.49417 0
-480.485 -4.48694 0
-478.844 -4.47923 0
-477.206 -4.4701 0
-475.567 -4.46115 0
-473.929 -4.45353 0
-472.29 -4.4438 0
-470.65 -4.43448 0
-469.009 -4.42623 0
-467.372 -4.41739 0
-465.733 -4.40909 0
-464.092 -4.39972 0
-462.453 -4.39139 0
-460.812 -4.38316 0
-459.17 -4.3749 0
-457.531 -4.36581 0
-455.893 -4.35797 0
-454.254 -4.34868 0
-452.614 -4.33828 0
-450.973 -4.33071 0
-449.334 -4.31918 0
-447.693 -4.30933 0
-446.052 -4.30095 0
-444.413 -4.2928 0
-442.772 -4.2823 0
-441.131 -4.27609 0
-439.49 -4.26621 0
-437.852 -4.25846 0
-436.211 -4.24969 0
-434.569 -4.24075 0
-432.927 -4.23004 0
-431.289 -4.22328 0
-429.648 -4.21554 0
-428.006 -4.20639 0
-426.365 -4.19868 0
-424.722 -4.19003 0
-423.082 -4.18335 0
-421.442 -4.17563 0
-419.801 -4.16771 0
-418.159 -4.16022 0
-416.519 -4.15212 0
-414.877 -4.14461 0
-413.235 -4.13836 0
-411.595 -4.13021 0
-409.952 -4.12481 0
-408.313 -4.11581 0
-406.672 -4.10911 0
-405.032 -4.10316 0
-403.39 -4.09846 0
-401.748 -4.09109 0
-400.105 -4.08854 0
-398.464 -4.08201 0
-396.824 -4.07697 0
-395.183 -4.07078 0
-393.543 -4.06385 0
-391.901 -4.0598 0
-390.259 -4.05515 0
-388.618 -4.04993 0
-386.976 -4.04505 0
-385.336 -4.0402 0
-383.695 -4.03669 0
-382.055 -4.03199 0
-380.414 -4.02984 0
-378.772 -4.02561 0
-377.129 -4.02394 0
-375.488 -4.02039 0
-373.848 -4.01477 0
-372.206 -4.01205 0
-370.564 -4.01001 0
-368.924 -4.00771 0
-367.283 -4.00516 0
-365.64 -4.00277 0
-363.999 -4.00174 0
-362.357 -3.99936 0
-360.717 -3.99667 0
-359.077 -3.99632 0
-357.437 -3.99367 0
-355.795 -3.99246 0
-354.154 -3.98855 0
-352.513 -3.98958 0
-350.871 -3.99068 0
-349.229 -3.98913 0
-347.587 -3.98592 0
-345.947 -3.98627 0
-344.306 -3.98573 0
-342.664 -3.98474 0
-341.022 -3.9842 0
-339.381 -3.98519 0
-337.739 -3.98764 0
-336.1 -3.98883 0
-334.458 -3.98856 0
-332.818 -3.98933 0
-331.177 -3.99014 0
-329.539 -3.98964 0
-327.898 -3.99035 0
-326.256 -3.98969 0
-324.617 -3.99138 0
-322.977 -3.99216 0
-321.335 -3.99332 0
-319.693 -3.99396 0
-318.055 -3.99913 0
-316.414 -3.99857 0
-314.771 -4.00077 0
-313.129 -4.00279 0
-311.488 -4.00621 0
-309.848 -4.00806 0
-308.21 -4.00952 0
-306.571 -4.00961 0
-304.928 -4.01363 0
-303.29 -4.01394 0
-301.649 -4.01534 0
-300.009 -4.01808 0
-298.368 -4.01993 0
-296.729 -4.02166 0
-295.089 -4.02266 0
-293.449 -4.02464 0
-291.809 -4.02805 0
-290.17 -4.03025 0
-288.53 -4.03454 0
-286.891 -4.03697 0
-285.251 -4.03754 0
-283.609 -4.04271 0
-281.97 -4.04529 0
-280.33 -4.0477 0
-278.691 -4.0482 0
-277.05 -4.04955 0
-275.411 -4.05222 0
-273.771 -4.05527 0
-272.13 -4.05775 0
-270.489 -4.05957 0
-268.85 -4.06113 0
-267.209 -4.06261 0
-265.569 -4.06448 0
-263.928 -4.06828 0
-262.287 -4.07176 0
-260.648 -4.07165 0
-259.009 -4.07719 0
-257.371 -4.07936 0
-255.733 -4.0827 0
-254.091 -4.08533 0
-252.451 -4.08708 0
-250.811 -4.08934 0
-249.174 -4.09333 0
-247.537 -4.09614 0
-245.895 -4.09695 0
-244.257 -4.0973 0
-242.618 -4.09728 0
-240.977 -4.1003 0
-239.338 -4.10473 0
-237.698 -4.10584 0
-236.06 -4.10967 0
-234.419 -4.11216 0
-232.777 -4.11397 0
-231.138 -4.11679 0
-229.499 -4.11855 0
-227.86 -4.1192 0
-226.221 -4.12198 0
-224.581 -4.12296 0
-222.942 -4.12571 0
-221.301 -4.12634 0
-219.664 -4.12938 0
-218.024 -4.13199 0
-216.384 -4.13223 0
-214.745 -4.13518 0
-213.106 -4.13537 0
-211.468 -4.13609 0
-209.828 -4.13816 0
-208.189 -4.13763 0
-206.549 -4.14062 0
-204.911 -4.1419 0
-203.272 -4.14431 0
-201.632 -4.14426 0
-199.993 -4.14516 0
-198.355 -4.14495 0
-196.715 -4.14729 0
-195.075 -4.14789 0
-193.434 -4.15016 0
-191.796 -4.14986 0
-190.158 -4.15317 0
-188.518 -4.15211 0
-186.88 -4.15058 0
-185.239 -4.15162 0
-183.601 -4.15309 0
-181.962 -4.15331 0
-180.322 -4.15234 0
-178.685 -4.155 0
-177.045 -4.15312 0
-175.405 -4.15321 0
-173.765 -4.15476 0
-172.128 -4.15386 0
-170.489 -4.15453 0
-168.851 -4.15673 0
-167.212 -4.15563 0
-165.574 -4.15587 0
-163.935 -4.15528 0
-162.296 -4.15602 0
-160.656 -4.15349 0
-159.017 -4.15531 0
-157.375 -4.15589 0
-155.734 -4.1552 0
-154.096 -4.15414 0
-152.456 -4.15389 0
-150.817 -4.15616 0
-149.177 -4.15445 0
-147.537 -4.15296 0
-145.898 -4.15416 0
-144.261 -4.15166 0
-142.622 -4.154 0
-140.981 -4.15236 0
-139.341 -4.15165 0
-137.702 -4.15016 0
-136.061 -4.14916 0
-134.421 -4.14852 0
-132.785 -4.14916 0
-131.144 -4.14848 0
-129.505 -4.14725 0
-127.866 -4.14577 0
-126.227 -4.14399 0
-124.588 -4.14338 0
-122.949 -4.14714 0
-121.308 -4.1459 0
-119.672 -4.14564 0
-118.035 -4.14386 0
-116.395 -4.14056 0
-114.754 -4.14024 0
-113.113 -4.14044 0
-111.475 -4.14012 0
-109.836 -4.14024 0
-108.197 -4.13938 0
-106.557 -4.13786 0
-104.919 -4.13872 0
-103.279 -4.13928 0
-101.64 -4.13822 0
-99.9977 -4.13856 0
-98.3583 -4.13796 0
-96.7215 -4.13613 0
-95.0849 -4.13569 0
-93.4447 -4.13371 0
-91.8036 -4.13245 0
-90.1663 -4.13074 0
-88.5263 -4.12962 0
-86.8875 -4.12759 0
-85.2474 -4.12709 0
-83.6092 -4.12974 0
-81.9709 -4.12637 0
-80.3302 -4.12657 0
-78.6909 -4.12541 0
-77.0511 -4.12616 0
-75.4124 -4.124 0
-73.7725 -4.1213 0
-72.1329 -4.12219 0
-70.4957 -4.11907 0
-68.857 -4.11999 0
-67.2162 -4.12164 0
-65.5772 -4.11914 0
-63.9365 -4.11828 0
-62.296 -4.11672 0
-60.6567 -4.11592 0
-59.0183 -4.11396 0
-57.3792 -4.11177 0
-55.7408 -4.10924 0
-54.1005 -4.10904 0
-52.4605 -4.10821 0
-50.8213 -4.10845 0
-49.1822 -4.10837 0
-47.543 -4.10513 0
-45.9029 -4.10825 0
-44.2642 -4.10404 0
-42.623 -4.10372 0
-40.9868 -4.10507 0
-39.3449 -4.10562 0
-37.7057 -4.10446 0
-36.0668 -4.10332 0
-34.4261 -4.10154 0
-32.7876 -4.10022 0
-31.1491 -4.10011 0
-29.5085 -4.10131 0
-27.8701 -4.10008 0
-26.2311 -4.10171 0
-24.5908 -4.10042 0
-22.9533 -4.09867 0
-21.3138 -4.09835 0
-19.6735 -4.09823 0
-18.0331 -4.09491 0
-16.3943 -4.09471 0
-14.7529 -4.09365 0
-13.1147 -4.09334 0
-11.4741 -4.09516 0
-9.83457 -4.09486 0
-8.19662 -4.09353 0
-6.55913 -4.09376 0
-4.91722 -4.09225 0
-3.27861 -4.09295 0
-1.63912 -4.09332 0
0 -4.09549 0
-1102.43 80.6732 0
-1102.41 72.9538 0
-1102.38 65.4416 0
-1102.32 58.2226 0
-1102.26 51.3215 0
-1102.23 44.6933 0
-1102.19 38.2912 0
-1102.1 32.1604 0
-1101.97 26.3713 0
-1101.82 20.9557 0
-1101.65 15.9179 0
-1101.46 11.2545 0
-1101.25 6.95874 0
-1101.02 3.01953 0
-1100.76 -0.578221 0
-1100.46 -3.85413 0
-1100.13 -6.82747 0
-1099.76 -9.5205 0
-1099.35 -11.9539 0
-1098.89 -14.1473 0
-1098.39 -16.1201 0
-1097.85 -17.8881 0
-1097.27 -19.4685 0
-1096.65 -20.8745 0
-1095.98 -22.1201 0
-1095.29 -23.2169 0
-1094.55 -24.1749 0
-1093.78 -25.0042 0
-1092.98 -25.7133 0
-1092.14 -26.3102 0
-1091.28 -26.8012 0
-1090.38 -27.1925 0
-1089.46 -27.4905 0
-1088.51 -27.6998 0
-1087.54 -27.8261 0
-1086.53 -27.8737 0
-1085.5 -27.8467 0
-1084.45 -27.7496 0
-1083.37 -27.5861 0
-1082.26 -27.3608 0
-1081.13 -27.0772 0
-1079.97 -26.739 0
-1078.79 -26.3497 0
-1077.58 -25.9133 0
-1076.35 -25.433 0
-1075.1 -24.9127 0
-1073.82 -24.3554 0
-1072.52 -23.7645 0
-1071.2 -23.1432 0
-1069.85 -22.4947 0
-1068.49 -21.8225 0
-1067.1 -21.129 0
-1065.69 -20.4168 0
-1064.26 -19.6891 0
-1062.82 -18.9477 0
-1061.35 -18.1963 0
-1059.87 -17.4371 0
-1058.37 -16.6716 0
-1056.85 -15.9023 0
-1055.32 -15.1316 0
-1053.76 -14.3607 0
-1052.2 -13.5921 0
-1050.62 -12.8277 0
-1049.03 -12.0685 0
-1047.42 -11.3163 0
-1045.8 -10.5724 0
-1044.17 -9.83823 0
-1042.52 -9.1155 0
-1040.87 -8.40454 0
-1039.21 -7.70704 0
-1037.53 -7.02407 0
-1035.85 -6.35591 0
-1034.16 -5.70374 0
-1032.46 -5.06876 0
-1030.75 -4.45158 0
-1029.03 -3.85265 0
-1027.31 -3.27244 0
-1025.59 -2.71093 0
-1023.85 -2.16935 0
-1022.11 -1.64828 0
-1020.37 -1.14723 0
-1018.63 -0.666454 0
-1016.87 -0.206875 0
-1015.12 0.231356 0
-1013.36 0.648732 0
-1011.6 1.04483 0
-1009.84 1.41992 0
-1008.08 1.77395 0
-1006.31 2.10639 0
-1004.55 2.41769 0
-1002.78 2.70824 0
-1001.01 2.97834 0
-999.242 3.22823 0
-997.473 3.4573 0
-995.704 3.66577 0
-993.936 3.85485 0
-992.169 4.02421 0
-990.402 4.17433 0
-988.637 4.30556 0
-986.874 4.41807 0
-985.111 4.51286 0
-983.351 4.5898 0
-981.593 4.64922 0
-979.836 4.69231 0
-978.083 4.71906 0
-976.331 4.7301 0
-974.582 4.72563 0
-972.835 4.70627 0
-971.092 4.6726 0
-969.352 4.62499 0
-967.614 4.56405 0
-965.879 4.4901 0
-964.148 4.4041 0
-962.418 4.30661 0
-960.693 4.19775 0
-958.972 4.07797 0
-957.253 3.94834 0
-955.537 3.80932 0
-953.825 3.66112 0
-952.117 3.50401 0
-950.413 3.33905 0
-948.711 3.16669 0
-947.013 2.98721 0
-945.318 2.8015 0
-943.626 2.6098 0
-941.938 2.41242 0
-940.253 2.21026 0
-938.571 2.00376 0
-936.893 1.79307 0
-935.218 1.57962 0
-933.546 1.36282 0
-931.878 1.14354 0
-930.212 0.922253 0
-928.549 0.698937 0
-926.889 0.473897 0
-925.233 0.248046 0
-923.579 0.0227084 0
-921.928 -0.204138 0
-920.279 -0.428942 0
-918.633 -0.654223 0
-916.991 -0.878193 0
-915.35 -1.10125 0
-913.711 -1.32261 0
-912.076 -1.54183 0
-910.442 -1.75873 0
-908.81 -1.97302 0
-907.181 -2.1844 0
-905.553 -2.39274 0
-903.927 -2.59819 0
-902.303 -2.7992 0
-900.682 -2.99636 0
-899.061 -3.19005 0
-897.443 -3.37927 0
-895.826 -3.56449 0
-894.21 -3.74459 0
-892.595 -3.92008 0
-890.982 -4.0908 0
-889.369 -4.25704 0
-887.758 -4.41719 0
-886.148 -4.57247 0
-884.538 -4.72304 0
-882.93 -4.86707 0
-881.322 -5.00698 0
-879.716 -5.14012 0
-878.109 -5.2679 0
-876.503 -5.39009 0
-874.898 -5.507 0
-873.293 -5.61771 0
-871.689 -5.72261 0
-870.085 -5.82094 0
-868.482 -5.91497 0
-866.878 -6.00286 0
-865.274 -6.08502 0
-863.669 -6.16015 0
-862.066 -6.23053 0
-860.462 -6.29594 0
-858.859 -6.35573 0
-857.255 -6.40934 0
-855.65 -6.45768 0
-854.046 -6.49991 0
-852.441 -6.53759 0
-850.835 -6.57054 0
-849.229 -6.5971 0
-847.623 -6.61881 0
-846.016 -6.63745 0
-844.409 -6.64897 0
-842.801 -6.65705 0
-841.193 -6.65969 0
-839.584 -6.65735 0
-837.974 -6.65092 0
-836.364 -6.6402 0
-834.752 -6.62619 0
-833.141 -6.60751 0
-831.529 -6.58439 0
-829.915 -6.55755 0
-828.301 -6.52744 0
-826.686 -6.49368 0
-825.07 -6.45665 0
-823.454 -6.4159 0
-821.838 -6.3723 0
-820.219 -6.32604 0
-818.599 -6.27601 0
-816.979 -6.22421 0
-815.358 -6.16922 0
-813.737 -6.11236 0
-812.114 -6.0515 0
-810.49 -5.99004 0
-808.866 -5.92537 0
-807.241 -5.85932 0
-805.616 -5.79186 0
-803.989 -5.72226 0
-802.361 -5.6515 0
-800.732 -5.57911 0
-799.103 -5.50454 0
-797.473 -5.42993 0
-795.843 -5.35473 0
-794.21 -5.27795 0
-792.578 -5.20003 0
-790.946 -5.12115 0
-789.31 -5.04184 0
-787.675 -4.9614 0
-786.041 -4.88099 0
-784.404 -4.80099 0
-782.767 -4.72062 0
-781.129 -4.63962 0
-779.49 -4.55888 0
-777.851 -4.47899 0
-776.211 -4.39857 0
-774.572 -4.31779 0
-772.93 -4.23843 0
-771.288 -4.15933 0
-769.646 -4.08008 0
-768.003 -4.00149 0
-766.359 -3.92435 0
-764.715 -3.84801 0
-763.07 -3.77288 0
-761.425 -3.69718 0
-759.78 -3.62367 0
-758.134 -3.55051 0
-756.488 -3.47906 0
-754.841 -3.40783 0
-753.194 -3.33907 0
-751.547 -3.27065 0
-749.899 -3.205 0
-748.25 -3.13876 0
-746.601 -3.07428 0
-744.952 -3.01116 0
-743.303 -2.95021 0
-741.653 -2.89025 0
-740.003 -2.83284 0
-738.353 -2.77642 0
-736.703 -2.72131 0
-735.052 -2.66674 0
-733.401 -2.61448 0
-731.75 -2.56481 0
-730.099 -2.51617 0
-728.446 -2.46897 0
-726.795 -2.42412 0
-725.144 -2.38025 0
-723.492 -2.33805 0
-721.841 -2.29857 0
-720.19 -2.25999 0
-718.538 -2.22305 0
-716.886 -2.18689 0
-715.234 -2.15296 0
-713.582 -2.12167 0
-711.931 -2.09115 0
-710.279 -2.06317 0
-708.627 -2.03654 0
-706.976 -2.01035 0
-705.324 -1.98628 0
-703.673 -1.96396 0
-702.022 -1.9437 0
-700.371 -1.92592 0
-698.72 -1.909 0
-697.068 -1.89263 0
-695.417 -1.87863 0
-693.766 -1.86493 0
-692.115 -1.85606 0
-690.465 -1.84625 0
-688.815 -1.83636 0
-687.165 -1.82941 0
-685.515 -1.82442 0
-683.866 -1.82035 0
-682.216 -1.81918 0
-680.567 -1.81682 0
-678.918 -1.81535 0
-677.269 -1.81731 0
-675.62 -1.81931 0
-673.972 -1.82187 0
-672.324 -1.82603 0
-670.676 -1.83136 0
-669.028 -1.83772 0
-667.381 -1.84509 0
-665.734 -1.8534 0
-664.087 -1.8628 0
-662.44 -1.87318 0
-660.793 -1.88404 0
-659.146 -1.89685 0
-657.5 -1.90912 0
-655.854 -1.92136 0
-654.207 -1.93553 0
-652.562 -1.95024 0
-650.917 -1.96533 0
-649.273 -1.98133 0
-647.628 -1.99738 0
-645.984 -2.0144 0
-644.339 -2.03101 0
-642.695 -2.04994 0
-641.051 -2.0674 0
-639.408 -2.08615 0
-637.764 -2.10503 0
-636.122 -2.12519 0
-634.479 -2.14445 0
-632.837 -2.16319 0
-631.195 -2.18304 0
-629.552 -2.20376 0
-627.911 -2.22329 0
-626.269 -2.24469 0
-624.628 -2.2645 0
-622.987 -2.28611 0
-621.345 -2.30635 0
-619.704 -2.32685 0
-618.063 -2.34742 0
-616.423 -2.36838 0
-614.782 -2.38943 0
-613.142 -2.40973 0
-611.502 -2.43021 0
-609.862 -2.44996 0
-608.222 -2.47078 0
-606.582 -2.49008 0
-604.944 -2.50988 0
-603.304 -2.52912 0
-601.665 -2.54843 0
-600.026 -2.56607 0
-598.387 -2.58436 0
-596.749 -2.60294 0
-595.111 -2.62071 0
-593.473 -2.63855 0
-591.834 -2.65688 0
-590.196 -2.6738 0
-588.557 -2.69016 0
-586.92 -2.7067 0
-585.282 -2.72331 0
-583.645 -2.73868 0
-582.006 -2.75279 0
-580.369 -2.7686 0
-578.732 -2.78328 0
-577.094 -2.797 0
-575.457 -2.81006 0
-573.82 -2.82378 0
-572.183 -2.8359 0
-570.546 -2.84864 0
-568.907 -2.86057 0
-567.269 -2.8716 0
-565.632 -2.88289 0
-563.994 -2.89218 0
-562.358 -2.90206 0
-560.721 -2.91277 0
-559.085 -2.92075 0
-557.448 -2.92867 0
-555.81 -2.93805 0
-554.175 -2.94479 0
-552.538 -2.95174 0
-550.901 -2.95739 0
-549.264 -2.96355 0
-547.627 -2.96955 0
-545.989 -2.97356 0
-544.352 -2.97882 0
-542.715 -2.98309 0
-541.078 -2.98827 0
-539.441 -2.99118 0
-537.804 -2.9928 0
-536.168 -2.9951 0
-534.531 -2.99775 0
-532.893 -2.99846 0
-531.256 -3.00001 0
-529.619 -3.00018 0
-527.981 -3.00011 0
-526.343 -3.00099 0
-524.706 -2.99943 0
-523.07 -2.99779 0
-521.43 -2.99611 0
-519.793 -2.99417 0
-518.157 -2.99195 0
-516.519 -2.98917 0
-514.882 -2.98524 0
-513.245 -2.98179 0
-511.606 -2.97701 0
-509.968 -2.97272 0
-508.33 -2.96901 0
-506.692 -2.9642 0
-505.054 -2.95985 0
-503.416 -2.95441 0
-501.777 -2.95034 0
-500.139 -2.94562 0
-498.5 -2.93864 0
-496.862 -2.93063 0
-495.224 -2.92525 0
-493.586 -2.91775 0
-491.948 -2.91054 0
-490.309 -2.90295 0
-488.669 -2.89413 0
-487.032 -2.88792 0
-485.394 -2.88011 0
-483.755 -2.87247 0
-482.115 -2.86382 0
-480.476 -2.85584 0
-478.838 -2.84785 0
-477.198 -2.83834 0
-475.559 -2.83028 0
-473.919 -2.82148 0
-472.28 -2.81231 0
-470.641 -2.8031 0
-469.003 -2.79487 0
-467.363 -2.78567 0
-465.723 -2.77714 0
-464.084 -2.76894 0
-462.444 -2.75942 0
-460.803 -2.75108 0
-459.163 -2.74235 0
-457.524 -2.73326 0
-455.883 -2.72489 0
-454.244 -2.71625 0
-452.604 -2.70602 0
-450.964 -2.69779 0
-449.323 -2.68669 0
-447.683 -2.67673 0
-446.044 -2.6682 0
-444.404 -2.6589 0
-442.764 -2.65114 0
-441.125 -2.64256 0
-439.483 -2.63335 0
-437.843 -2.62515 0
-436.203 -2.61767 0
-434.56 -2.60755 0
-432.92 -2.59808 0
-431.278 -2.5901 0
-429.637 -2.58137 0
-427.998 -2.57272 0
-426.356 -2.56567 0
-424.717 -2.55789 0
-423.076 -2.55054 0
-421.436 -2.54192 0
-419.794 -2.53366 0
-418.152 -2.5268 0
-416.511 -2.51802 0
-414.87 -2.51103 0
-413.229 -2.50522 0
-411.588 -2.49837 0
-409.947 -2.49034 0
-408.307 -2.48303 0
-406.666 -2.47633 0
-405.026 -2.47056 0
-403.384 -2.4636 0
-401.743 -2.45842 0
-400.101 -2.4535 0
-398.459 -2.44911 0
-396.819 -2.44278 0
-395.179 -2.43812 0
-393.537 -2.4313 0
-391.897 -2.42668 0
-390.256 -2.42279 0
-388.613 -2.41632 0
-386.971 -2.41216 0
-385.331 -2.40742 0
-383.69 -2.40262 0
-382.05 -2.40008 0
-380.409 -2.39473 0
-378.768 -2.39202 0
-377.127 -2.38958 0
-375.485 -2.38657 0
-373.844 -2.3823 0
-372.203 -2.37881 0
-370.562 -2.37543 0
-368.921 -2.37309 0
-367.279 -2.37163 0
-365.639 -2.37003 0
-363.999 -2.36876 0
-362.358 -2.36602 0
-360.717 -2.36403 0
-359.076 -2.36189 0
-357.434 -2.35978 0
-355.793 -2.35764 0
-354.152 -2.35516 0
-352.511 -2.35529 0
-350.869 -2.35606 0
-349.227 -2.3557 0
-347.585 -2.35296 0
-345.944 -2.35284 0
-344.303 -2.352 0
-342.664 -2.35127 0
-341.023 -2.35091 0
-339.382 -2.35234 0
-337.741 -2.35461 0
-336.101 -2.35482 0
-334.46 -2.35529 0
-332.82 -2.35607 0
-331.178 -2.35609 0
-329.538 -2.3566 0
-327.897 -2.35652 0
-326.258 -2.35651 0
-324.617 -2.35887 0
-322.976 -2.35891 0
-321.337 -2.35963 0
-319.697 -2.36206 0
-318.056 -2.36625 0
-316.414 -2.36551 0
-314.773 -2.36765 0
-313.132 -2.37044 0
-311.492 -2.37226 0
-309.852 -2.37454 0
-308.21 -2.37715 0
-306.571 -2.37767 0
-304.93 -2.38046 0
-303.29 -2.3823 0
-301.651 -2.38236 0
-300.01 -2.38513 0
-298.37 -2.38881 0
-296.73 -2.38914 0
-295.091 -2.38994 0
-293.452 -2.39283 0
-291.812 -2.39524 0
-290.171 -2.3977 0
-288.531 -2.40113 0
-286.891 -2.40433 0
-285.251 -2.40529 0
-283.613 -2.40921 0
-281.972 -2.41248 0
-280.331 -2.41502 0
-278.692 -2.41548 0
-277.052 -2.41741 0
-275.412 -2.41845 0
-273.773 -2.42247 0
-272.134 -2.42459 0
-270.492 -2.42598 0
-268.852 -2.42895 0
-267.213 -2.4307 0
-265.572 -2.43238 0
-263.931 -2.43462 0
-262.292 -2.44012 0
-260.653 -2.44132 0
-259.013 -2.44496 0
-257.374 -2.44793 0
-255.734 -2.4506 0
-254.095 -2.45251 0
-252.455 -2.4562 0
-250.816 -2.4593 0
-249.176 -2.46124 0
-247.536 -2.46449 0
-245.897 -2.46421 0
-244.257 -2.46624 0
-242.619 -2.46714 0
-240.979 -2.46881 0
-239.341 -2.47202 0
-237.701 -2.47468 0
-236.061 -2.47702 0
-234.42 -2.48021 0
-232.78 -2.48249 0
-231.142 -2.4854 0
-229.502 -2.48626 0
-227.862 -2.48654 0
-226.221 -2.49075 0
-224.582 -2.49193 0
-222.942 -2.49267 0
-221.304 -2.49646 0
-219.664 -2.49719 0
-218.025 -2.50027 0
-216.386 -2.50159 0
-214.746 -2.50267 0
-213.108 -2.50496 0
-211.468 -2.50557 0
-209.83 -2.50664 0
-208.191 -2.50715 0
-206.55 -2.50884 0
-204.912 -2.51104 0
-203.273 -2.51155 0
-201.632 -2.51252 0
-199.992 -2.51457 0
-198.353 -2.51414 0
-196.715 -2.51617 0
-195.077 -2.51637 0
-193.438 -2.51852 0
-191.799 -2.51861 0
-190.158 -2.5206 0
-188.519 -2.52021 0
-186.88 -2.51994 0
-185.241 -2.51916 0
-183.601 -2.52129 0
-181.962 -2.52192 0
-180.322 -2.52216 0
-178.682 -2.52333 0
-177.045 -2.52257 0
-175.406 -2.52186 0
-173.767 -2.52125 0
-172.13 -2.52185 0
-170.492 -2.52241 0
-168.853 -2.52418 0
-167.213 -2.52409 0
-165.573 -2.52395 0
-163.934 -2.52367 0
-162.293 -2.52325 0
-160.654 -2.52295 0
-159.015 -2.52278 0
-157.375 -2.52428 0
-155.735 -2.52351 0
-154.096 -2.52331 0
-152.456 -2.52258 0
-150.815 -2.52246 0
-149.176 -2.52176 0
-147.537 -2.52279 0
-145.898 -2.52137 0
-144.26 -2.52144 0
-142.621 -2.52174 0
-140.98 -2.51973 0
-139.341 -2.5209 0
-137.7 -2.51764 0
-136.062 -2.51734 0
-134.423 -2.51744 0
-132.785 -2.51763 0
-131.144 -2.51497 0
-129.505 -2.51607 0
-127.864 -2.51313 0
-126.227 -2.51247 0
-124.588 -2.51248 0
-122.95 -2.51344 0
-121.311 -2.51301 0
-119.671 -2.51453 0
-118.032 -2.51113 0
-116.394 -2.50951 0
-114.755 -2.50859 0
-113.115 -2.50951 0
-111.477 -2.50903 0
-109.835 -2.50893 0
-108.196 -2.50736 0
-106.557 -2.50675 0
-104.918 -2.50797 0
-103.279 -2.50687 0
-101.638 -2.50612 0
-99.9999 -2.50672 0
-98.3602 -2.50656 0
-96.7211 -2.50671 0
-95.0821 -2.50528 0
-93.4433 -2.50232 0
-91.8032 -2.5001 0
-90.1646 -2.49974 0
-88.5259 -2.49788 0
-86.8864 -2.49717 0
-85.2476 -2.49578 0
-83.6078 -2.49672 0
-81.969 -2.49503 0
-80.328 -2.49483 0
-78.6893 -2.49408 0
-77.0504 -2.49388 0
-75.4112 -2.49108 0
-73.7727 -2.49013 0
-72.1337 -2.49203 0
-70.4949 -2.48897 0
-68.8556 -2.48851 0
-67.2164 -2.4886 0
-65.5747 -2.48701 0
-63.9354 -2.48619 0
-62.2958 -2.48573 0
-60.6576 -2.4824 0
-59.018 -2.48247 0
-57.3784 -2.4804 0
-55.7386 -2.47875 0
-54.0993 -2.47674 0
-52.4595 -2.47724 0
-50.822 -2.47543 0
-49.1816 -2.47493 0
-47.5419 -2.47387 0
-45.9015 -2.475 0
-44.2628 -2.47242 0
-42.6243 -2.47237 0
-40.9838 -2.47343 0
-39.3441 -2.47302 0
-37.7054 -2.47318 0
-36.067 -2.47057 0
-34.4267 -2.47013 0
-32.7889 -2.46979 0
-31.1504 -2.47017 0
-29.5108 -2.46938 0
-27.8694 -2.46882 0
-26.231 -2.46975 0
-24.5911 -2.4682 0
-22.9515 -2.46627 0
-21.3122 -2.46517 0
-19.6718 -2.46527 0
-18.0327 -2.46291 0
-16.3925 -2.46324 0
-14.7533 -2.46157 0
-13.1131 -2.46133 0
-11.4723 -2.46174 0
-9.83548 -2.46263 0
-8.19578 -2.46274 0
-6.55841 -2.4609 0
-4.91851 -2.46028 0
-3.27958 -2.46231 0
-1.63862 -2.46118 0
0 -2.46293 0
-1110.45 81.1941 0
-1110.03 73.2974 0
-1109.75 65.8102 0
-1109.44 58.6043 0
-1109.11 51.6752 0
-1108.79 45.0178 0
-1108.46 38.642 0
-1108.07 32.5604 0
-1107.63 26.8009 0
-1107.14 21.3977 0
-1106.61 16.3675 0
-1106.07 11.7116 0
-1105.51 7.42487 0
-1104.94 3.4974 0
-1104.34 -0.0859227 0
-1103.73 -3.3429 0
-1103.11 -6.29479 0
-1102.46 -8.96299 0
-1101.79 -11.3688 0
-1101.09 -13.533 0
-1100.38 -15.4749 0
-1099.63 -17.2124 0
-1098.86 -18.7616 0
-1098.06 -20.1372 0
-1097.24 -21.3529 0
-1096.39 -22.4205 0
-1095.51 -23.3504 0
-1094.62 -24.1521 0
-1093.69 -24.8344 0
-1092.75 -25.4056 0
-1091.78 -25.8709 0
-1090.78 -26.2374 0
-1089.77 -26.5112 0
-1088.73 -26.6965 0
-1087.67 -26.799 0
-1086.59 -26.8227 0
-1085.49 -26.7724 0
-1084.37 -26.6515 0
-1083.22 -26.4647 0
-1082.05 -26.2167 0
-1080.86 -25.9098 0
-1079.65 -25.5489 0
-1078.42 -25.1371 0
-1077.17 -24.678 0
-1075.9 -24.176 0
-1074.6 -23.634 0
-1073.29 -23.055 0
-1071.96 -22.4429 0
-1070.6 -21.8007 0
-1069.23 -21.1324 0
-1067.84 -20.4399 0
-1066.44 -19.7271 0
-1065.01 -18.9962 0
-1063.57 -18.2502 0
-1062.11 -17.4914 0
-1060.63 -16.7226 0
-1059.14 -15.9465 0
-1057.63 -15.1648 0
-1056.11 -14.3802 0
-1054.57 -13.5939 0
-1053.02 -12.8087 0
-1051.46 -12.0265 0
-1049.88 -11.2486 0
-1048.3 -10.4767 0
-1046.7 -9.71236 0
-1045.08 -8.95691 0
-1043.46 -8.2115 0
-1041.83 -7.47853 0
-1040.19 -6.75772 0
-1038.54 -6.05047 0
-1036.87 -5.35838 0
-1035.21 -4.68242 0
-1033.53 -4.02231 0
-1031.85 -3.38018 0
-1030.16 -2.75587 0
-1028.46 -2.15009 0
-1026.76 -1.56391 0
-1025.05 -0.997104 0
-1023.33 -0.450683 0
-1021.61 0.0754646 0
-1019.89 0.580634 0
-1018.16 1.06496 0
-1016.43 1.52791 0
-1014.7 1.96955 0
-1012.96 2.38956 0
-1011.22 2.78834 0
-1009.48 3.1651 0
-1007.74 3.5205 0
-1005.99 3.85446 0
-1004.25 4.1671 0
-1002.5 4.4586 0
-1000.75 4.72933 0
-999.004 4.97922 0
-997.255 5.20807 0
-995.506 5.41651 0
-993.757 5.60508 0
-992.009 5.77371 0
-990.261 5.92279 0
-988.514 6.05275 0
-986.768 6.16442 0
-985.023 6.25726 0
-983.28 6.33242 0