<?xml version="1.0"?>
<VTKFile type="StructuredGrid"  version="0.1" byte_order="LittleEndian" compressor="vtkZLibDataCompressor">
  <StructuredGrid WholeExtent="0 700 0 30 0 0">
    <Piece Extent="0 700 0 30 0 0">
      <PointData Vectors="Velocity">
        <DataArray type="Float32" Name="Velocity" NumberOfComponents="3" format="ascii">
-1089.9 134.672 0
-1089.99 125.165 0
-1090.13 115.819 0
-1090.3 106.727 0
-1090.48 97.9263 0
-1090.65 89.415 0
-1090.82 81.1835 0
-1091 73.2503 0
-1091.19 65.6456 0
-1091.37 58.3877 0
-1091.55 51.4829 0
-1091.71 44.9309 0
-1091.85 38.7271 0
-1091.97 32.8674 0
-1092.06 27.3433 0
-1092.11 22.1404 0
-1092.12 17.2468 0
-1092.09 12.6479 0
-1092.02 8.32622 0
-1091.9 4.26723 0
-1091.73 0.456954 0
-1091.51 -3.11758 0
-1091.25 -6.47396 0
-1090.95 -9.62148 0
-1090.61 -12.5708 0
-1090.23 -15.3344 0
-1089.81 -17.9178 0
-1089.36 -20.332 0
-1088.88 -22.5866 0
-1088.36 -24.6847 0
-1087.82 -26.6336 0
-1087.25 -28.4424 0
-1086.65 -30.1095 0
-1086.02 -31.6459 0
-1085.37 -33.0545 0
-1084.7 -34.3386 0
-1084 -35.4991 0
-1083.28 -36.5452 0
-1082.53 -37.4788 0
-1081.75 -38.3024 0
-1080.96 -39.0203 0
-1080.13 -39.6374 0
-1079.28 -40.1575 0
-1078.41 -40.579 0
-1077.52 -40.9098 0
-1076.59 -41.1535 0
-1075.64 -41.3139 0
-1074.67 -41.3905 0
-1073.67 -41.3905 0
-1072.65 -41.3168 0
-1071.6 -41.1729 0
-1070.52 -40.9621 0
-1069.43 -40.6871 0
-1068.3 -40.3514 0
-1067.16 -39.9563 0
-1065.99 -39.5115 0
-1064.8 -39.0147 0
-1063.58 -38.4677 0
-1062.34 -37.877 0
-1061.08 -37.2444 0
-1059.8 -36.572 0
-1058.49 -35.8635 0
-1057.17 -35.1214 0
-1055.82 -34.3494 0
-1054.46 -33.5497 0
-1053.07 -32.7215 0
-1051.67 -31.8714 0
-1050.24 -30.998 0
-1048.8 -30.106 0
-1047.34 -29.1985 0
-1045.87 -28.2735 0
-1044.38 -27.3363 0
-1042.87 -26.3882 0
-1041.34 -25.4311 0
-1039.8 -24.4645 0
-1038.25 -23.4966 0
-1036.68 -22.522 0
-1035.1 -21.5441 0
-1033.5 -20.5672 0
-1031.89 -19.5902 0
-1030.27 -18.6148 0
-1028.64 -17.6421 0
-1027 -16.6753 0
-1025.34 -15.7141 0
-1023.68 -14.756 0
-1022 -13.8109 0
-1020.31 -12.8695 0
-1018.62 -11.9421 0
-1016.91 -11.0245 0
-1015.2 -10.1173 0
-1013.48 -9.22662 0
-1011.75 -8.34643 0
-1010.02 -7.48107 0
-1008.27 -6.62898 0
-1006.52 -5.79404 0
-1004.77 -4.97412 0
-1003 -4.17248 0
-1001.23 -3.38609 0
-999.462 -2.61953 0
-997.683 -1.86877 0
-995.901 -1.13824 0
-994.113 -0.425146 0
-992.321 0.267984 0
-990.528 0.942624 0
-988.73 1.59531 0
-986.928 2.22906 0
-985.125 2.84155 0
-983.319 3.43328 0
-981.51 4.00605 0
-979.7 4.55616 0
-977.889 5.08512 0
-976.075 5.59609 0
-974.261 6.08683 0
-972.444 6.55344 0
-970.628 6.9997 0
-968.81 7.42438 0
-966.991 7.82668 0
-965.174 8.20973 0
-963.357 8.57197 0
-961.538 8.91433 0
-959.722 9.23439 0
-957.907 9.53393 0
-956.092 9.81409 0
-954.277 10.0748 0
-952.465 10.3143 0
-950.655 10.5344 0
-948.842 10.7372 0
-947.034 10.9186 0
-945.227 11.0815 0
-943.423 11.2257 0
-941.618 11.3514 0
-939.816 11.4588 0
-938.016 11.5487 0
-936.22 11.622 0
-934.425 11.6782 0
-932.633 11.7178 0
-930.843 11.7386 0
-929.054 11.7431 0
-927.271 11.7331 0
-925.489 11.7069 0
-923.711 11.6645 0
-921.936 11.6088 0
-920.162 11.5384 0
-918.392 11.4531 0
-916.625 11.3547 0
-914.861 11.2425 0
-913.101 11.1171 0
-911.344 10.98 0
-909.591 10.832 0
-907.84 10.6717 0
-906.092 10.5007 0
-904.348 10.3179 0
-902.606 10.1251 0
-900.871 9.92347 0
-899.137 9.71091 0
-897.405 9.4897 0
-895.676 9.26066 0
-893.951 9.02201 0
-892.231 8.77417 0
-890.513 8.51978 0
-888.799 8.25832 0
-887.088 7.99053 0
-885.38 7.71545 0
-883.674 7.43432 0
-881.972 7.15003 0
-880.274 6.85822 0
-878.578 6.56008 0
-876.885 6.25861 0
-875.195 5.95291 0
-873.508 5.6439 0
-871.824 5.33175 0
-870.144 5.01808 0
-868.467 4.70258 0
-866.792 4.38201 0
-865.121 4.05941 0
-863.45 3.73564 0
-861.784 3.40928 0
-860.12 3.08164 0
-858.458 2.7553 0
-856.797 2.42663 0
-855.142 2.09721 0
-853.488 1.76756 0
-851.837 1.43947 0
-850.188 1.11074 0
-848.54 0.784002 0
-846.895 0.458376 0
-845.252 0.134153 0
-843.612 -0.1873 0
-841.975 -0.507811 0
-840.337 -0.826746 0
-838.704 -1.1413 0
-837.071 -1.45534 0
-835.44 -1.76563 0
-833.809 -2.0734 0
-832.18 -2.37747 0
-830.553 -2.68052 0
-828.928 -2.97716 0
-827.305 -3.27029 0
-825.682 -3.56106 0
-824.061 -3.84992 0
-822.441 -4.13201 0
-820.824 -4.40904 0
-819.207 -4.68342 0
-817.592 -4.95217 0
-815.977 -5.21654 0
-814.363 -5.47605 0
-812.749 -5.73197 0
-811.137 -5.98053 0
-809.526 -6.22538 0
-807.916 -6.46671 0
-806.306 -6.70144 0
-804.698 -6.93169 0
-803.089 -7.15503 0
-801.48 -7.37355 0
-799.874 -7.58821 0
-798.267 -7.79585 0
-796.661 -7.99877 0
-795.055 -8.19564 0
-793.45 -8.38664 0
-791.844 -8.57001 0
-790.238 -8.75116 0
-788.633 -8.92354 0
-787.029 -9.09275 0
-785.424 -9.25541 0
-783.819 -9.41238 0
-782.214 -9.56336 0
-780.61 -9.71122 0
-779.006 -9.85134 0
-777.399 -9.98611 0
-775.795 -10.1155 0
-774.19 -10.2385 0
-772.584 -10.3564 0
-770.981 -10.4705 0
-769.375 -10.5759 0
-767.768 -10.6771 0
-766.161 -10.7745 0
-764.557 -10.8655 0
-762.947 -10.95 0
-761.341 -11.0299 0
-759.733 -11.1064 0
-758.125 -11.1764 0
-756.516 -11.2416 0
-754.907 -11.3031 0
-753.296 -11.3578 0
-751.685 -11.4086 0
-750.075 -11.4536 0
-748.464 -11.4958 0
-746.85 -11.5326 0
-745.24 -11.5644 0
-743.626 -11.5913 0
-742.013 -11.6129 0
-740.398 -11.6329 0
-738.784 -11.647 0
-737.166 -11.6576 0
-735.551 -11.6659 0
-733.933 -11.6675 0
-732.315 -11.6686 0
-730.696 -11.6631 0
-729.076 -11.6543 0
-727.455 -11.6413 0
-725.833 -11.6251 0
-724.211 -11.6075 0
-722.59 -11.5868 0
-720.968 -11.5609 0
-719.342 -11.5311 0
-717.715 -11.4988 0
-716.09 -11.4677 0
-714.464 -11.4306 0
-712.836 -11.3899 0
-711.21 -11.3499 0
-709.58 -11.3062 0
-707.948 -11.2609 0
-706.319 -11.2148 0
-704.687 -11.1637 0
-703.056 -11.1108 0
-701.421 -11.0546 0
-699.788 -10.9984 0
-698.153 -10.9379 0
-696.52 -10.8764 0
-694.883 -10.8163 0
-693.246 -10.7523 0
-691.609 -10.6875 0
-689.969 -10.6234 0
-688.332 -10.5577 0
-686.691 -10.488 0
-685.052 -10.4168 0
-683.41 -10.3475 0
-681.768 -10.2773 0
-680.125 -10.2041 0
-678.481 -10.1335 0
-676.839 -10.0606 0
-675.194 -9.98641 0
-673.55 -9.91314 0
-671.904 -9.8365 0
-670.256 -9.76525 0
-668.611 -9.68856 0
-666.962 -9.61198 0
-665.315 -9.53751 0
-663.666 -9.46177 0
-662.018 -9.38802 0
-660.37 -9.31182 0
-658.718 -9.23676 0
-657.066 -9.16376 0
-655.415 -9.08336 0
-653.763 -9.00861 0
-652.112 -8.935 0
-650.46 -8.86047 0
-648.806 -8.78762 0
-647.153 -8.71443 0
-645.497 -8.64535 0
-643.844 -8.57364 0
-642.189 -8.50417 0
-640.533 -8.43355 0
-638.878 -8.36488 0
-637.222 -8.29635 0
-635.564 -8.22847 0
-633.907 -8.16192 0
-632.25 -8.09683 0
-630.592 -8.03187 0
-628.935 -7.96798 0
-627.276 -7.90556 0
-625.619 -7.8436 0
-623.958 -7.78224 0
-622.3 -7.72344 0
-620.64 -7.66695 0
-618.978 -7.60796 0
-617.32 -7.55366 0
-615.66 -7.50133 0
-613.999 -7.45022 0
-612.34 -7.39837 0
-610.68 -7.34826 0
-609.02 -7.2967 0
-607.357 -7.25035 0
-605.695 -7.20367 0
-604.037 -7.15955 0
-602.376 -7.1153 0
-600.714 -7.07289 0
-599.052 -7.03383 0
-597.391 -6.99956 0
-595.732 -6.96042 0
-594.07 -6.92516 0
-592.409 -6.89292 0
-590.747 -6.85836 0
-589.084 -6.82694 0
-587.425 -6.79898 0
-585.764 -6.77066 0
-584.101 -6.74291 0
-582.44 -6.71443 0
-580.775 -6.6912 0
-579.112 -6.66937 0
-577.451 -6.6505 0
-575.79 -6.6324 0
-574.129 -6.612 0
-572.465 -6.59478 0
-570.805 -6.57894 0
-569.145 -6.56539 0
-567.484 -6.55241 0
-565.822 -6.54042 0
-564.159 -6.53148 0
-562.5 -6.52282 0
-560.841 -6.51685 0
-559.18 -6.50916 0
-557.519 -6.50823 0
-555.857 -6.5033 0
-554.198 -6.50251 0
-552.539 -6.49916 0
-550.878 -6.50173 0
-549.219 -6.50345 0
-547.559 -6.51017 0
-545.899 -6.51239 0
-544.241 -6.51727 0
-542.582 -6.52351 0
-540.923 -6.53318 0
-539.264 -6.53981 0
-537.603 -6.55197 0
-535.945 -6.56351 0
-534.285 -6.57844 0
-532.628 -6.59234 0
-530.97 -6.60516 0
-529.312 -6.62072 0
-527.653 -6.63721 0
-525.996 -6.65452 0
-524.338 -6.67385 0
-522.681 -6.69342 0
-521.023 -6.71255 0
-519.369 -6.73168 0
-517.71 -6.75394 0
-516.055 -6.77514 0
-514.397 -6.80263 0
-512.742 -6.82384 0
-511.089 -6.85008 0
-509.433 -6.87355 0
-507.778 -6.90078 0
-506.124 -6.92951 0
-504.469 -6.95751 0
-502.813 -6.98475 0
-501.157 -7.01368 0
-499.505 -7.04184 0
-497.852 -7.07176 0
-496.199 -7.09893 0
-494.542 -7.13076 0
-492.889 -7.1621 0
-491.237 -7.19371 0
-489.586 -7.2228 0
-487.931 -7.25667 0
-486.279 -7.28879 0
-484.628 -7.32429 0
-482.975 -7.35601 0
-481.325 -7.39115 0
-479.672 -7.42361 0
-478.02 -7.45756 0
-476.367 -7.49071 0
-474.713 -7.52642 0
-473.064 -7.55913 0
-471.415 -7.59274 0
-469.768 -7.62549 0
-468.113 -7.66007 0
-466.462 -7.699 0
-464.809 -7.73126 0
-463.161 -7.76476 0
-461.51 -7.80094 0
-459.863 -7.83733 0
-458.214 -7.87443 0
-456.566 -7.90828 0
-454.919 -7.94618 0
-453.27 -7.9781 0
-451.617 -8.01322 0
-449.971 -8.04533 0
-448.319 -8.07749 0
-446.671 -8.11581 0
-445.023 -8.15296 0
-443.376 -8.18247 0
-441.727 -8.21546 0
-440.081 -8.24727 0
-438.433 -8.28029 0
-436.786 -8.31433 0
-435.138 -8.34837 0
-433.49 -8.37725 0
-431.846 -8.41156 0
-430.199 -8.44247 0
-428.551 -8.47374 0
-426.903 -8.50579 0
-425.256 -8.53549 0
-423.611 -8.56596 0
-421.965 -8.59388 0
-420.318 -8.62287 0
-418.674 -8.65084 0
-417.028 -8.68124 0
-415.382 -8.71313 0
-413.735 -8.73852 0
-412.092 -8.76797 0
-410.444 -8.79027 0
-408.798 -8.81735 0
-407.152 -8.84454 0
-405.506 -8.86854 0
-403.86 -8.89638 0
-402.218 -8.92207 0
-400.575 -8.94914 0
-398.928 -8.97014 0
-397.283 -8.98964 0
-395.638 -9.01337 0
-393.992 -9.03562 0
-392.345 -9.05686 0
-390.701 -9.07945 0
-389.056 -9.096 0
-387.411 -9.11585 0
-385.764 -9.13478 0
-384.118 -9.15419 0
-382.479 -9.17277 0
-380.832 -9.18835 0
-379.184 -9.20794 0
-377.539 -9.22063 0
-375.895 -9.23815 0
-374.249 -9.25797 0
-372.604 -9.26721 0
-370.96 -9.28176 0
-369.316 -9.29545 0
-367.673 -9.31081 0
-366.028 -9.32324 0
-364.383 -9.33384 0
-362.741 -9.34827 0
-361.098 -9.35933 0
-359.452 -9.36817 0
-357.807 -9.38152 0
-356.161 -9.38823 0
-354.514 -9.39585 0
-352.867 -9.40666 0
-351.222 -9.41065 0
-349.579 -9.41575 0
-347.933 -9.42256 0
-346.289 -9.42752 0
-344.644 -9.435 0
-342.998 -9.44129 0
-341.354 -9.44488 0
-339.708 -9.44981 0
-338.062 -9.4537 0
-336.414 -9.45649 0
-334.767 -9.45796 0
-333.122 -9.46263 0
-331.478 -9.46416 0
-329.832 -9.46543 0
-328.188 -9.4638 0
-326.54 -9.46698 0
-324.895 -9.46579 0
-323.252 -9.46639 0
-321.604 -9.46595 0
-319.958 -9.46601 0
-318.311 -9.46139 0
-316.667 -9.45868 0
-315.023 -9.45414 0
-313.379 -9.44853 0
-311.732 -9.4466 0
-310.085 -9.44273 0
-308.443 -9.43743 0
-306.796 -9.4343 0
-305.148 -9.42739 0
-303.5 -9.42371 0
-301.855 -9.4161 0
-300.208 -9.40994 0
-298.559 -9.40225 0
-296.913 -9.39313 0
-295.268 -9.38509 0
-293.622 -9.37919 0
-291.977 -9.37328 0
-290.33 -9.36736 0
-288.682 -9.35677 0
-287.032 -9.34897 0
-285.387 -9.33908 0
-283.74 -9.32586 0
-282.094 -9.31556 0
-280.446 -9.30922 0
-278.799 -9.2952 0
-277.151 -9.28458 0
-275.504 -9.27533 0
-273.855 -9.26578 0
-272.206 -9.24868 0
-270.559 -9.24115 0
-268.912 -9.22656 0
-267.266 -9.2171 0
-265.621 -9.20593 0
-263.97 -9.19365 0
-262.322 -9.18316 0
-260.675 -9.1646 0
-259.027 -9.15496 0
-257.381 -9.13909 0
-255.736 -9.12541 0
-254.088 -9.10956 0
-252.437 -9.09428 0
-250.789 -9.07884 0
-249.14 -9.0667 0
-247.49 -9.05137 0
-245.842 -9.0379 0
-244.195 -9.02503 0
-242.546 -9.00896 0
-240.898 -8.99736 0
-239.249 -8.98525 0
-237.602 -8.96819 0
-235.953 -8.95468 0
-234.305 -8.94208 0
-232.656 -8.9275 0
-231.005 -8.90995 0
-229.356 -8.89198 0
-227.705 -8.87953 0
-226.057 -8.86499 0
-224.409 -8.85012 0
-222.76 -8.83414 0
-221.11 -8.81912 0
-219.461 -8.8066 0
-217.813 -8.79407 0
-216.163 -8.77661 0
-214.513 -8.76144 0
-212.864 -8.74922 0
-211.215 -8.73311 0
-209.565 -8.71487 0
-207.916 -8.69973 0
-206.266 -8.68513 0
-204.617 -8.67065 0
-202.968 -8.65368 0
-201.319 -8.63919 0
-199.667 -8.62681 0
-198.018 -8.61199 0
-196.367 -8.5952 0
-194.719 -8.58057 0
-193.07 -8.56957 0
-191.421 -8.55553 0
-189.771 -8.53728 0
-188.121 -8.52652 0
-186.47 -8.51072 0
-184.822 -8.494 0
-183.172 -8.47923 0
-181.521 -8.46865 0
-179.872 -8.45374 0
-178.221 -8.43842 0
-176.569 -8.42241 0
-174.919 -8.40928 0
-173.268 -8.39595 0
-171.616 -8.38253 0
-169.964 -8.37062 0
-168.317 -8.35963 0
-166.666 -8.34616 0
-165.016 -8.33264 0
-163.368 -8.31893 0
-161.716 -8.30857 0
-160.066 -8.29627 0
-158.416 -8.27988 0
-156.766 -8.27163 0
-155.116 -8.25869 0
-153.465 -8.24611 0
-151.817 -8.23224 0
-150.166 -8.21868 0
-148.516 -8.20883 0
-146.865 -8.19899 0
-145.215 -8.18787 0
-143.565 -8.17544 0
-141.914 -8.166 0
-140.264 -8.15482 0
-138.615 -8.14425 0
-136.962 -8.13591 0
-135.313 -8.12424 0
-133.662 -8.113 0
-132.01 -8.10279 0
-130.359 -8.09266 0
-128.71 -8.08366 0
-127.06 -8.07335 0
-125.409 -8.05991 0
-123.759 -8.05499 0
-122.11 -8.04615 0
-120.459 -8.03607 0
-118.809 -8.02583 0
-117.159 -8.01819 0
-115.509 -8.00908 0
-113.859 -8.00044 0
-112.205 -7.99053 0
-110.554 -7.97989 0
-108.904 -7.97338 0
-107.255 -7.96385 0
-105.605 -7.95625 0
-103.956 -7.95033 0
-102.305 -7.94127 0
-100.652 -7.93243 0
-98.9993 -7.92728 0
-97.3491 -7.91978 0
-95.6989 -7.91399 0
-94.0513 -7.90762 0
-92.402 -7.89523 0
-90.7532 -7.89339 0
-89.1032 -7.88505 0
-87.4535 -7.8803 0
-85.8022 -7.87446 0
-84.154 -7.86692 0
-82.5032 -7.86058 0
-80.8524 -7.85597 0
-79.201 -7.85247 0
-77.5545 -7.8452 0
-75.9032 -7.83834 0
-74.2509 -7.83478 0
-72.6036 -7.82924 0
-70.9565 -7.82757 0
-69.3046 -7.8208 0
-67.6534 -7.81445 0
-66.0023 -7.80899 0
-64.3509 -7.80705 0
-62.6996 -7.80203 0
-61.0518 -7.79808 0
-59.4021 -7.79318 0
-57.7499 -7.78625 0
-56.0979 -7.78261 0
-54.4502 -7.78032 0
-52.8017 -7.77404 0
-51.1505 -7.77484 0
-49.5008 -7.76976 0
-47.8523 -7.76553 0
-46.199 -7.76274 0
-44.5448 -7.75887 0
-42.8988 -7.75411 0
-41.2481 -7.74976 0
-39.5964 -7.74728 0
-37.9478 -7.74666 0
-36.2958 -7.74184 0
-34.6457 -7.74252 0
-32.9955 -7.73782 0
-31.3477 -7.73607 0
-29.6984 -7.73408 0
-28.0506 -7.73059 0
-26.4002 -7.73251 0
-24.75 -7.72692 0
-23.0987 -7.72359 0
-21.4492 -7.72351 0
-19.7968 -7.72434 0
-18.1487 -7.72401 0
-16.4996 -7.71964 0
-14.8498 -7.71834 0
-13.1997 -7.7177 0
-11.5504 -7.71678 0
-9.901 -7.71751 0
-8.25094 -7.71169 0
-6.60093 -7.71465 0
-4.94873 -7.71481 0
-3.29857 -7.71427 0
-1.65098 -7.71493 0
0 -7.71602 0
-1099.42 134.794 0
-1099.36 125.243 0
-1099.3 115.883 0
-1099.21 106.787 0
-1099.11 97.9813 0
-1099.02 89.4666 0
-1098.91 81.2349 0
-1098.79 73.301 0
-1098.64 65.699 0
-1098.48 58.4457 0
-1098.31 51.5475 0
-1098.12 45.0056 0
-1097.92 38.8155 0
-1097.7 32.9741 0
-1097.46 27.4731 0
-1097.19 22.2987 0
-1096.9 17.4354 0
-1096.58 12.87 0
-1096.23 8.58415 0
-1095.85 4.56085 0
-1095.44 0.788177 0
-1094.99 -2.75219 0
-1094.51 -6.07177 0
-1094.01 -9.18652 0
-1093.47 -12.1033 0
-1092.91 -14.8341 0
-1092.32 -17.3902 0
-1091.7 -19.7753 0
-1091.06 -22.0038 0
-1090.39 -24.0759 0
-1089.7 -26.001 0
-1088.99 -27.7847 0
-1088.25 -29.4297 0
-1087.5 -30.9436 0
-1086.72 -32.329 0
-1085.93 -33.5897 0
-1085.11 -34.7297 0
-1084.27 -35.7528 0
-1083.41 -36.6648 0
-1082.53 -37.4649 0
-1081.63 -38.1609 0
-1080.7 -38.756 0
-1079.76 -39.2502 0
-1078.79 -39.6512 0
-1077.81 -39.9579 0
-1076.8 -40.1793 0
-1075.76 -40.3155 0
-1074.71 -40.3692 0
-1073.64 -40.3468 0
-1072.54 -40.2493 0
-1071.42 -40.083 0
-1070.28 -39.8503 0
-1069.13 -39.5515 0
-1067.94 -39.1932 0
-1066.74 -38.777 0
-1065.52 -38.309 0
-1064.28 -37.7902 0
-1063.02 -37.2234 0
-1061.73 -36.6115 0
-1060.43 -35.9571 0
-1059.11 -35.2649 0
-1057.77 -34.5372 0
-1056.42 -33.7758 0
-1055.04 -32.9841 0
-1053.65 -32.1645 0
-1052.24 -31.3197 0
-1050.81 -30.4512 0
-1049.37 -29.5624 0
-1047.91 -28.6518 0
-1046.43 -27.727 0
-1044.94 -26.7869 0
-1043.44 -25.8334 0
-1041.92 -24.8718 0
-1040.39 -23.8987 0
-1038.84 -22.9192 0
-1037.28 -21.936 0
-1035.71 -20.9474 0
-1034.12 -19.959 0
-1032.53 -18.9685 0
-1030.92 -17.9797 0
-1029.3 -16.9934 0
-1027.67 -16.0093 0
-1026.03 -15.033 0
-1024.39 -14.0596 0
-1022.73 -13.0931 0
-1021.06 -12.1368 0
-1019.38 -11.1869 0
-1017.7 -10.2501 0
-1016.01 -9.32557 0
-1014.3 -8.41063 0
-1012.6 -7.51063 0
-1010.88 -6.62509 0
-1009.16 -5.75156 0
-1007.43 -4.89313 0
-1005.7 -4.05135 0
-1003.96 -3.22574 0
-1002.21 -2.41865 0
-1000.46 -1.62762 0
-998.707 -0.855198 0
-996.946 -0.100742 0
-995.182 0.634431 0
-993.413 1.35109 0
-991.642 2.04866 0
-989.866 2.72457 0
-988.089 3.38171 0
-986.308 4.01779 0
-984.525 4.63335 0
-982.739 5.22799 0
-980.951 5.8019 0
-979.162 6.35489 0
-977.37 6.88492 0
-975.577 7.39689 0
-973.784 7.88862 0
-971.99 8.3566 0
-970.194 8.80354 0
-968.398 9.22881 0
-966.6 9.63218 0
-964.803 10.0148 0
-963.005 10.3764 0
-961.209 10.7178 0
-959.413 11.0376 0
-957.618 11.337 0
-955.822 11.617 0
-954.029 11.8759 0
-952.236 12.1144 0
-950.444 12.3338 0
-948.652 12.534 0
-946.862 12.7148 0
-945.075 12.8765 0
-943.288 13.0188 0
-941.503 13.1432 0
-939.718 13.2483 0
-937.936 13.3359 0
-936.156 13.4075 0
-934.378 13.4609 0
-932.603 13.497 0
-930.83 13.5165 0
-929.059 13.5184 0
-927.289 13.5054 0
-925.523 13.4769 0
-923.76 13.4324 0
-921.998 13.3739 0
-920.24 13.3004 0
-918.484 13.2126 0
-916.73 13.1107 0
-914.98 12.9955 0
-913.233 12.8672 0
-911.488 12.7277 0
-909.746 12.5765 0
-908.006 12.4139 0
-906.269 12.2395 0
-904.536 12.0533 0
-902.805 11.8579 0
-901.077 11.6524 0
-899.352 11.4374 0
-897.629 11.2136 0
-895.91 10.9808 0
-894.194 10.7388 0
-892.481 10.4889 0
-890.77 10.2311 0
-889.062 9.96585 0
-887.357 9.6951 0
-885.656 9.41782 0
-883.957 9.13379 0
-882.259 8.8454 0
-880.566 8.5508 0
-878.876 8.25022 0
-877.188 7.94629 0
-875.502 7.63841 0
-873.818 7.32611 0
-872.138 7.01097 0
-870.459 6.69427 0
-868.784 6.37544 0
-867.112 6.05246 0
-865.442 5.7277 0
-863.775 5.40167 0
-862.109 5.07293 0
-860.445 4.74337 0
-858.784 4.41411 0
-857.127 4.08306 0
-855.47 3.75106 0
-853.816 3.41993 0
-852.164 3.08869 0
-850.514 2.75861 0
-848.865 2.42961 0
-847.219 2.10102 0
-845.575 1.77495 0
-843.933 1.45163 0
-842.292 1.1293 0
-840.654 0.808976 0
-839.017 0.491993 0
-837.382 0.17733 0
-835.747 -0.135486 0
-834.114 -0.4445 0
-832.483 -0.75035 0
-830.853 -1.05441 0
-829.224 -1.35185 0
-827.596 -1.64713 0
-825.97 -1.93919 0
-824.345 -2.22797 0
-822.721 -2.51163 0
-821.098 -2.79124 0
-819.477 -3.06613 0
-817.857 -3.33661 0
-816.238 -3.60134 0
-814.619 -3.86255 0
-813.001 -4.11898 0
-811.384 -4.36899 0
-809.768 -4.61442 0
-808.153 -4.85632 0
-806.539 -5.0918 0
-804.924 -5.32218 0
-803.31 -5.54623 0
-801.697 -5.76547 0
-800.085 -5.98026 0
-798.472 -6.18853 0
-796.859 -6.39265 0
-795.248 -6.5888 0
-793.637 -6.77935 0
-792.025 -6.96477 0
-790.415 -7.14395 0
-788.804 -7.31884 0
-787.193 -7.48698 0
-785.583 -7.64878 0
-783.972 -7.80703 0
-782.363 -7.95808 0
-780.752 -8.10533 0
-779.142 -8.24606 0
-777.531 -8.38067 0
-775.921 -8.50966 0
-774.311 -8.63235 0
-772.701 -8.7506 0
-771.09 -8.86378 0
-769.478 -8.97068 0
-767.867 -9.07041 0
-766.255 -9.167 0
-764.642 -9.25839 0
-763.03 -9.34256 0
-761.418 -9.42312 0
-759.806 -9.49802 0
-758.193 -9.56703 0
-756.579 -9.63281 0
-754.965 -9.69225 0
-753.35 -9.74676 0
-751.736 -9.79809 0
-750.119 -9.84273 0
-748.503 -9.88335 0
-746.886 -9.9204 0
-745.269 -9.95129 0
-743.651 -9.97805 0
-742.033 -9.99922 0
-740.415 -10.0171 0
-738.796 -10.0316 0
-737.176 -10.0413 0
-735.555 -10.0482 0
-733.933 -10.0507 0
-732.311 -10.05 0
-730.689 -10.0449 0
-729.065 -10.0351 0
-727.441 -10.021 0
-725.817 -10.0051 0
-724.192 -9.98466 0
-722.566 -9.96378 0
-720.939 -9.93747 0
-719.311 -9.90775 0
-717.684 -9.87495 0
-716.055 -9.84089 0
-714.426 -9.80508 0
-712.798 -9.7642 0
-711.167 -9.72263 0
-709.535 -9.67708 0
-707.903 -9.63186 0
-706.269 -9.5841 0
-704.635 -9.53231 0
-703 -9.47892 0
-701.366 -9.42307 0
-699.731 -9.36553 0
-698.094 -9.30514 0
-696.458 -9.24405 0
-694.821 -9.18079 0
-693.183 -9.11817 0
-691.544 -9.05225 0
-689.905 -8.98698 0
-688.263 -8.91924 0
-686.622 -8.84976 0
-684.981 -8.77925 0
-683.339 -8.70866 0
-681.697 -8.638 0
-680.055 -8.56716 0
-678.411 -8.4916 0
-676.766 -8.41671 0
-675.121 -8.34336 0
-673.476 -8.26917 0
-671.829 -8.19394 0
-670.182 -8.12004 0
-668.534 -8.04389 0
-666.887 -7.96701 0
-665.239 -7.89091 0
-663.59 -7.81509 0
-661.942 -7.7418 0
-660.293 -7.66385 0
-658.642 -7.58943 0
-656.992 -7.51356 0
-655.341 -7.43607 0
-653.689 -7.36005 0
-652.037 -7.28528 0
-650.385 -7.21131 0
-648.733 -7.13748 0
-647.078 -7.06373 0
-645.426 -6.99247 0
-643.773 -6.92132 0
-642.117 -6.85203 0
-640.463 -6.77942 0
-638.807 -6.71107 0
-637.152 -6.64145 0
-635.497 -6.57473 0
-633.841 -6.50798 0
-632.184 -6.44341 0
-630.527 -6.37787 0
-628.871 -6.31304 0
-627.215 -6.24927 0
-625.557 -6.1874 0
-623.899 -6.12691 0
-622.242 -6.06893 0
-620.584 -6.00869 0
-618.926 -5.95234 0
-617.265 -5.89617 0
-615.607 -5.84352 0
-613.946 -5.79304 0
-612.288 -5.74081 0
-610.629 -5.68951 0
-608.969 -5.63948 0
-607.31 -5.59053 0
-605.65 -5.54665 0
-603.992 -5.50179 0
-602.333 -5.45663 0
-600.674 -5.41501 0
-599.015 -5.37525 0
-597.354 -5.33915 0
-595.694 -5.3017 0
-594.035 -5.26542 0
-592.375 -5.23295 0
-590.715 -5.19978 0
-589.056 -5.16921 0
-587.397 -5.13935 0
-585.735 -5.11175 0
-584.075 -5.08262 0
-582.414 -5.05636 0
-580.754 -5.03242 0
-579.093 -5.01023 0
-577.433 -4.98908 0
-575.771 -4.97214 0
-574.108 -4.95335 0
-572.45 -4.9357 0
-570.79 -4.92064 0
-569.131 -4.90733 0
-567.472 -4.89344 0
-565.813 -4.8827 0
-564.152 -4.87392 0
-562.493 -4.86571 0
-560.834 -4.85985 0
-559.176 -4.85212 0
-557.515 -4.85067 0
-555.855 -4.84448 0
-554.197 -4.84456 0
-552.538 -4.84417 0
-550.879 -4.844 0
-549.222 -4.84698 0
-547.564 -4.85133 0
-545.906 -4.8553 0
-544.245 -4.86088 0
-542.588 -4.86658 0
-540.929 -4.8736 0
-539.272 -4.88476 0
-537.613 -4.89592 0
-535.956 -4.90838 0
-534.3 -4.92288 0
-532.643 -4.93633 0
-530.984 -4.94871 0
-529.326 -4.96353 0
-527.67 -4.98178 0
-526.014 -4.99939 0
-524.358 -5.01785 0
-522.702 -5.03669 0
-521.044 -5.05749 0
-519.387 -5.07949 0
-517.733 -5.09956 0
-516.079 -5.12183 0
-514.423 -5.14646 0
-512.768 -5.17116 0
-511.114 -5.19717 0
-509.459 -5.22201 0
-507.805 -5.24913 0
-506.149 -5.27683 0
-504.496 -5.30277 0
-502.844 -5.3318 0
-501.189 -5.36028 0
-499.535 -5.39097 0
-497.881 -5.42018 0
-496.229 -5.44918 0
-494.574 -5.47906 0
-492.921 -5.51214 0
-491.269 -5.54353 0
-489.616 -5.57458 0
-487.964 -5.60615 0
-486.313 -5.63885 0
-484.662 -5.67214 0
-483.009 -5.70699 0
-481.358 -5.73999 0
-479.703 -5.77231 0
-478.053 -5.80764 0
-476.401 -5.84108 0
-474.749 -5.87689 0
-473.099 -5.91038 0
-471.449 -5.94335 0
-469.798 -5.97738 0
-468.15 -6.01089 0
-466.497 -6.04962 0
-464.848 -6.08351 0
-463.199 -6.11861 0
-461.548 -6.15323 0
-459.899 -6.19056 0
-458.249 -6.2295 0
-456.599 -6.26134 0
-454.951 -6.29758 0
-453.301 -6.33139 0
-451.654 -6.36526 0
-450.005 -6.39944 0
-448.356 -6.43244 0
-446.707 -6.46838 0
-445.057 -6.50427 0
-443.408 -6.53682 0
-441.762 -6.57071 0
-440.114 -6.60262 0
-438.469 -6.63504 0
-436.819 -6.66902 0
-435.169 -6.70152 0
-433.522 -6.7345 0
-431.877 -6.76666 0
-430.229 -6.79759 0
-428.582 -6.8301 0
-426.935 -6.85976 0
-425.286 -6.89119 0
-423.64 -6.92167 0
-421.994 -6.95045 0
-420.348 -6.97983 0
-418.703 -7.0094 0
-417.058 -7.03684 0
-415.41 -7.06846 0
-413.765 -7.09422 0
-412.117 -7.12395 0
-410.47 -7.14718 0
-408.824 -7.1738 0
-407.179 -7.19973 0
-405.533 -7.22625 0
-403.888 -7.25452 0
-402.245 -7.27919 0
-400.599 -7.30464 0
-398.95 -7.32534 0
-397.304 -7.34712 0
-395.657 -7.37091 0
-394.013 -7.39212 0
-392.366 -7.41418 0
-390.721 -7.43504 0
-389.075 -7.454 0
-387.43 -7.47326 0
-385.786 -7.49319 0
-384.141 -7.51273 0
-382.494 -7.5289 0
-380.849 -7.54352 0
-379.201 -7.56255 0
-377.556 -7.57954 0
-375.911 -7.59492 0
-374.264 -7.61143 0
-372.618 -7.62707 0
-370.976 -7.63915 0
-369.33 -7.65273 0
-367.685 -7.66785 0
-366.039 -7.68089 0
-364.397 -7.69238 0
-362.751 -7.70543 0
-361.106 -7.71867 0
-359.46 -7.72687 0
-357.814 -7.73729 0
-356.169 -7.74586 0
-354.523 -7.75427 0
-352.876 -7.76143 0
-351.23 -7.7686 0
-349.585 -7.77453 0
-347.939 -7.78063 0
-346.294 -7.78605 0
-344.649 -7.79361 0
-343.002 -7.79602 0
-341.355 -7.80229 0
-339.71 -7.80709 0
-338.063 -7.8095 0
-336.416 -7.81323 0
-334.772 -7.81671 0
-333.127 -7.81983 0
-331.479 -7.82057 0
-329.835 -7.82245 0
-328.188 -7.82179 0
-326.545 -7.82268 0
-324.895 -7.8248 0
-323.25 -7.82259 0
-321.602 -7.82243 0
-319.956 -7.82199 0
-318.312 -7.81934 0
-316.665 -7.81558 0
-315.02 -7.81184 0
-313.374 -7.80598 0
-311.729 -7.80432 0
-310.084 -7.79812 0
-308.436 -7.79399 0
-306.79 -7.78867 0
-305.141 -7.78336 0
-303.497 -7.77931 0
-301.849 -7.7728 0
-300.2 -7.76491 0
-298.554 -7.75699 0
-296.908 -7.75017 0
-295.262 -7.74349 0
-293.616 -7.73592 0
-291.969 -7.72946 0
-290.321 -7.72105 0
-288.674 -7.71202 0
-287.026 -7.70414 0
-285.377 -7.69252 0
-283.729 -7.68161 0
-282.083 -7.67138 0
-280.437 -7.66155 0
-278.789 -7.65125 0
-277.142 -7.6391 0
-275.493 -7.63038 0
-273.844 -7.61876 0
-272.196 -7.60511 0
-270.549 -7.59647 0
-268.901 -7.58305 0
-267.254 -7.57356 0
-265.606 -7.55839 0
-263.959 -7.54762 0
-262.31 -7.53641 0
-260.662 -7.52045 0
-259.015 -7.50719 0
-257.367 -7.49468 0
-255.72 -7.47866 0
-254.07 -7.46692 0
-252.423 -7.44955 0
-250.774 -7.43522 0
-249.125 -7.42092 0
-247.478 -7.40617 0
-245.829 -7.39247 0
-244.18 -7.37713 0
-242.534 -7.36431 0
-240.885 -7.35176 0
-239.234 -7.33905 0
-237.585 -7.32175 0
-235.939 -7.30786 0
-234.289 -7.29511 0
-232.641 -7.27869 0
-230.989 -7.26286 0
-229.34 -7.24742 0
-227.691 -7.23417 0
-226.041 -7.22007 0
-224.393 -7.20465 0
-222.745 -7.18856 0
-221.096 -7.17361 0
-219.448 -7.16053 0
-217.798 -7.14462 0
-216.147 -7.13021 0
-214.498 -7.11455 0
-212.848 -7.10149 0
-211.199 -7.08579 0
-209.551 -7.06984 0
-207.901 -7.05486 0
-206.251 -7.03968 0
-204.601 -7.02404 0
-202.953 -7.00799 0
-201.302 -6.99268 0
-199.653 -6.98008 0
-198.002 -6.96469 0
-196.355 -6.94881 0
-194.707 -6.93614 0
-193.058 -6.92252 0
-191.407 -6.90853 0
-189.757 -6.8924 0
-188.106 -6.87807 0
-186.454 -6.86332 0
-184.805 -6.84726 0
-183.156 -6.8328 0
-181.507 -6.8192 0
-179.858 -6.80833 0
-178.206 -6.79051 0
-176.555 -6.77619 0
-174.903 -6.76347 0
-173.253 -6.74773 0
-171.604 -6.73434 0
-169.953 -6.72376 0
-168.303 -6.71112 0
-166.655 -6.69793 0
-165.004 -6.68583 0
-163.354 -6.67178 0
-161.704 -6.66053 0
-160.054 -6.64777 0
-158.404 -6.63512 0
-156.756 -6.62199 0
-155.105 -6.61089 0
-153.455 -6.59758 0
-151.804 -6.58527 0
-150.154 -6.57378 0
-148.505 -6.56147 0
-146.856 -6.55265 0
-145.207 -6.54006 0
-143.555 -6.52731 0
-141.905 -6.51848 0
-140.254 -6.50655 0
-138.602 -6.49562 0
-136.953 -6.48649 0
-135.301 -6.47614 0
-133.651 -6.46621 0
-132.002 -6.45535 0
-130.352 -6.44596 0
-128.7 -6.43688 0
-127.05 -6.4251 0
-125.4 -6.41338 0
-123.751 -6.40602 0
-122.102 -6.39763 0
-120.45 -6.38772 0
-118.8 -6.37986 0
-117.15 -6.36994 0
-115.5 -6.36212 0
-113.848 -6.35147 0
-112.197 -6.34218 0
-110.547 -6.33489 0
-108.897 -6.32465 0
-107.247 -6.31845 0
-105.598 -6.30882 0
-103.948 -6.30086 0
-102.297 -6.29466 0
-100.646 -6.28479 0
-98.9943 -6.27788 0
-97.3443 -6.27185 0
-95.6935 -6.26657 0
-94.0453 -6.25864 0
-92.3958 -6.24942 0
-90.7475 -6.2462 0
-89.096 -6.2379 0
-87.4462 -6.23452 0
-85.7958 -6.22804 0
-84.1454 -6.22065 0
-82.4962 -6.2139 0
-80.8483 -6.20905 0
-79.1965 -6.20481 0
-77.5478 -6.19808 0
-75.898 -6.19155 0
-74.2488 -6.18777 0
-72.5987 -6.18348 0
-70.9481 -6.17902 0
-69.2987 -6.17335 0
-67.6487 -6.16741 0
-65.9982 -6.16118 0
-64.3469 -6.15785 0
-62.6961 -6.15486 0
-61.0459 -6.15063 0
-59.3951 -6.14448 0
-57.7461 -6.13931 0
-56.0958 -6.13577 0
-54.4475 -6.13398 0
-52.7964 -6.12797 0
-51.1473 -6.12571 0
-49.4967 -6.12297 0
-47.8461 -6.11948 0
-46.1956 -6.11502 0
-44.5449 -6.11141 0
-42.8946 -6.10829 0
-41.2449 -6.10249 0
-39.5956 -6.10122 0
-37.9458 -6.09929 0
-36.2938 -6.09624 0
-34.6428 -6.09381 0
-32.9939 -6.09176 0
-31.3451 -6.09044 0
-29.6961 -6.08635 0
-28.0467 -6.08569 0
-26.3962 -6.08233 0
-24.7465 -6.07969 0
-23.0977 -6.07663 0
-21.4481 -6.07546 0
-19.7959 -6.07528 0
-18.1469 -6.07553 0
-16.4955 -6.07363 0
-14.848 -6.07319 0
-13.1986 -6.06908 0
-11.5473 -6.06835 0
-9.89894 -6.06922 0
-8.24915 -6.06562 0
-6.59973 -6.06558 0
-4.94975 -6.0656 0
-3.29913 -6.06641 0
-1.6495 -6.07004 0
0 -6.0675 0
-1109.26 135.232 0
-1108.83 125.526 0
-1108.52 116.19 0
-1108.19 107.116 0
-1107.82 98.3161 0
-1107.43 89.8 0
-1107.03 81.5807 0
-1106.59 73.6717 0
-1106.13 66.0886 0
-1105.64 58.847 0
-1105.12 51.9591 0
-1104.6 45.4258 0
-1104.05 39.2482 0
-1103.49 33.4186 0
-1102.92 27.9303 0
-1102.33 22.7711 0
-1101.74 17.9243 0
-1101.12 13.3772 0
-1100.49 9.11093 0
-1099.85 5.10922 0
-1099.19 1.35739 0
-1098.51 -2.15932 0
-1097.81 -5.45655 0
-1097.1 -8.54815 0
-1096.37 -11.4442 0
-1095.62 -14.1535 0
-1094.85 -16.6901 0
-1094.06 -19.0551 0
-1093.26 -21.2628 0
-1092.44 -23.3166 0
-1091.6 -25.2231 0
-1090.75 -26.9869 0
-1089.88 -28.6155 0
-1088.99 -30.1114 0
-1088.09 -31.4778 0
-1087.17 -32.7202 0
-1086.23 -33.8432 0
-1085.28 -34.8475 0
-1084.31 -35.7398 0
-1083.32 -36.5224 0
-1082.31 -37.2 0
-1081.29 -37.7751 0
-1080.25 -38.2503 0
-1079.19 -38.6309 0
-1078.11 -38.918 0
-1077.02 -39.1194 0
-1075.9 -39.2359 0
-1074.77 -39.271 0
-1073.62 -39.2272 0
-1072.45 -39.1119 0
-1071.26 -38.9253 0
-1070.06 -38.6715 0
-1068.84 -38.3546 0
-1067.6 -37.9769 0
-1066.34 -37.5425 0
-1065.06 -37.0546 0
-1063.77 -36.5172 0
-1062.46 -35.9324 0
-1061.14 -35.3018 0
-1059.8 -34.6318 0
-1058.44 -33.9216 0
-1057.06 -33.1768 0
-1055.67 -32.3986 0
-1054.27 -31.5896 0
-1052.85 -30.7532 0
-1051.41 -29.8929 0
-1049.96 -29.0091 0
-1048.5 -28.1041 0
-1047.02 -27.18 0
-1045.53 -26.2401 0
-1044.02 -25.2866 0
-1042.51 -24.3198 0
-1040.98 -23.3435 0
-1039.44 -22.3599 0
-1037.88 -21.3673 0
-1036.32 -20.3715 0
-1034.74 -19.3712 0
-1033.16 -18.3714 0
-1031.56 -17.3715 0
-1029.95 -16.3715 0
-1028.34 -15.3747 0
-1026.71 -14.381 0
-1025.08 -13.3933 0
-1023.44 -12.412 0
-1021.78 -11.4372 0
-1020.12 -10.4717 0
-1018.46 -9.51439 0
-1016.78 -8.56944 0
-1015.1 -7.63814 0
-1013.41 -6.71553 0
-1011.72 -5.80916 0
-1010.01 -4.9156 0
-1008.31 -4.03635 0
-1006.59 -3.17419 0
-1004.88 -2.32544 0
-1003.15 -1.49472 0
-1001.42 -0.681457 0
-999.69 0.113411 0
-997.952 0.890213 0
-996.21 1.64907 0
-994.464 2.38908 0
-992.714 3.10849 0
-990.962 3.80896 0
-989.208 4.48878 0
-987.449 5.14781 0
-985.688 5.78633 0
-983.925 6.40443 0
-982.16 7.00177 0
-980.392 7.57751 0
-978.623 8.13197 0