<?xml version="1.0"?>
<VTKFile type="StructuredGrid"  version="0.1" byte_order="LittleEndian" compressor="vtkZLibDataCompressor">
  <StructuredGrid WholeExtent="0 700 0 30 0 0">
    <Piece Extent="0 700 0 30 0 0">
      <PointData Vectors="Velocity">
        <DataArray type="Float32" Name="Velocity" NumberOfComponents="3" format="ascii">
-1092.87 67.1662 0
-1093.04 60.0877 0
-1093.27 53.1892 0
-1093.54 46.5852 0
-1093.79 40.3107 0
-1093.98 34.3016 0
-1094.17 28.5037 0
-1094.4 22.9786 0
-1094.65 17.8083 0
-1094.88 13.02 0
-1095.09 8.61154 0
-1095.27 4.57625 0
-1095.42 0.902977 0
-1095.52 -2.42218 0
-1095.57 -5.41785 0
-1095.56 -8.10442 0
-1095.49 -10.5035 0
-1095.35 -12.637 0
-1095.14 -14.5267 0
-1094.86 -16.1923 0
-1094.52 -17.6521 0
-1094.11 -18.9243 0
-1093.64 -20.0246 0
-1093.11 -20.9675 0
-1092.53 -21.7661 0
-1091.89 -22.4336 0
-1091.2 -22.9802 0
-1090.47 -23.4154 0
-1089.69 -23.7492 0
-1088.88 -23.9885 0
-1088.02 -24.1404 0
-1087.12 -24.2122 0
-1086.19 -24.2097 0
-1085.22 -24.1376 0
-1084.22 -24.0017 0
-1083.19 -23.8061 0
-1082.13 -23.5562 0
-1081.03 -23.2551 0
-1079.91 -22.9069 0
-1078.75 -22.5154 0
-1077.57 -22.0846 0
-1076.35 -21.6179 0
-1075.11 -21.1185 0
-1073.84 -20.5896 0
-1072.55 -20.035 0
-1071.23 -19.4576 0
-1069.88 -18.8597 0
-1068.51 -18.2451 0
-1067.11 -17.6163 0
-1065.7 -16.9753 0
-1064.25 -16.326 0
-1062.79 -15.6698 0
-1061.31 -15.0088 0
-1059.8 -14.3465 0
-1058.28 -13.6841 0
-1056.74 -13.0236 0
-1055.18 -12.3668 0
-1053.6 -11.7152 0
-1052.01 -11.0706 0
-1050.41 -10.4347 0
-1048.78 -9.809 0
-1047.15 -9.19411 0
-1045.5 -8.59201 0
-1043.84 -8.00426 0
-1042.17 -7.43025 0
-1040.49 -6.87096 0
-1038.79 -6.32928 0
-1037.09 -5.80429 0
-1035.38 -5.29675 0
-1033.67 -4.8079 0
-1031.94 -4.3373 0
-1030.21 -3.88601 0
-1028.47 -3.45448 0
-1026.73 -3.04315 0
-1024.98 -2.65128 0
-1023.23 -2.2796 0
-1021.47 -1.92871 0
-1019.71 -1.59835 0
-1017.95 -1.28813 0
-1016.19 -0.998419 0
-1014.42 -0.729192 0
-1012.66 -0.479572 0
-1010.89 -0.250349 0
-1009.12 -0.0402341 0
-1007.35 0.149388 0
-1005.58 0.320304 0
-1003.82 0.471896 0
-1002.05 0.605316 0
-1000.28 0.720401 0
-998.517 0.817099 0
-996.755 0.897113 0
-994.995 0.960502 0
-993.236 1.0071 0
-991.48 1.03791 0
-989.726 1.05394 0
-987.976 1.05301 0
-986.229 1.03888 0
-984.485 1.01095 0
-982.744 0.969555 0
-981.007 0.914945 0
-979.274 0.848468 0
-977.544 0.7702 0
-975.818 0.681075 0
-974.096 0.581524 0
-972.377 0.472168 0
-970.662 0.353138 0
-968.952 0.226374 0
-967.246 0.0901376 0
-965.544 -0.0533355 0
-963.846 -0.20395 0
-962.151 -0.360786 0
-960.462 -0.523145 0
-958.776 -0.691263 0
-957.093 -0.864922 0
-955.415 -1.04166 0
-953.741 -1.22274 0
-952.071 -1.40632 0
-950.405 -1.59417 0
-948.742 -1.78279 0
-947.083 -1.97459 0
-945.429 -2.16656 0
-943.777 -2.36076 0
-942.129 -2.55447 0
-940.484 -2.7484 0
-938.841 -2.94265 0
-937.203 -3.13503 0
-935.567 -3.32616 0
-933.934 -3.51592 0
-932.304 -3.70556 0
-930.677 -3.89281 0
-929.053 -4.07775 0
-927.431 -4.25873 0
-925.812 -4.43726 0
-924.195 -4.61289 0
-922.58 -4.78355 0
-920.967 -4.95191 0
-919.356 -5.11574 0
-917.746 -5.27559 0
-916.139 -5.43135 0
-914.533 -5.58124 0
-912.929 -5.72761 0
-911.326 -5.86953 0
-909.725 -6.00624 0
-908.125 -6.13782 0
-906.525 -6.26337 0
-904.927 -6.38339 0
-903.33 -6.49869 0
-901.733 -6.60844 0
-900.137 -6.71254 0
-898.542 -6.8118 0
-896.947 -6.90455 0
-895.352 -6.99288 0
-893.758 -7.07513 0
-892.165 -7.15203 0
-890.571 -7.22365 0
-888.977 -7.28967 0
-887.384 -7.34932 0
-885.79 -7.40385 0
-884.196 -7.4536 0
-882.601 -7.49691 0
-881.008 -7.53614 0
-879.413 -7.56991 0
-877.818 -7.59849 0
-876.222 -7.62165 0
-874.626 -7.64108 0
-873.03 -7.65498 0
-871.433 -7.66531 0
-869.835 -7.66844 0
-868.237 -7.66793 0
-866.637 -7.66408 0
-865.037 -7.65588 0
-863.436 -7.64302 0
-861.834 -7.62717 0
-860.23 -7.60693 0
-858.628 -7.58401 0
-857.023 -7.55504 0
-855.417 -7.52373 0
-853.811 -7.48865 0
-852.204 -7.45126 0
-850.595 -7.41017 0
-848.986 -7.36696 0
-847.376 -7.32093 0
-845.765 -7.27163 0
-844.151 -7.2208 0
-842.537 -7.16696 0
-840.923 -7.11199 0
-839.307 -7.05535 0
-837.69 -6.99671 0
-836.072 -6.93612 0
-834.454 -6.87343 0
-832.835 -6.80907 0
-831.214 -6.74379 0
-829.593 -6.67757 0
-827.969 -6.61065 0
-826.345 -6.54192 0
-824.72 -6.47326 0
-823.094 -6.40143 0
-821.468 -6.33259 0
-819.84 -6.26345 0
-818.212 -6.19169 0
-816.582 -6.1202 0
-814.953 -6.05037 0
-813.322 -5.97809 0
-811.689 -5.90839 0
-810.057 -5.8368 0
-808.423 -5.7679 0
-806.79 -5.69824 0
-805.155 -5.62813 0
-803.519 -5.55931 0
-801.883 -5.49079 0
-800.247 -5.42344 0
-798.609 -5.35522 0
-796.97 -5.29129 0
-795.333 -5.22673 0
-793.692 -5.16392 0
-792.051 -5.10228 0
-790.411 -5.04103 0
-788.771 -4.98201 0
-787.13 -4.92323 0
-785.489 -4.86628 0
-783.847 -4.81116 0
-782.205 -4.75651 0
-780.562 -4.70293 0
-778.919 -4.65133 0
-777.275 -4.6003 0
-775.632 -4.55244 0
-773.989 -4.50547 0
-772.344 -4.45998 0
-770.7 -4.41617 0
-769.057 -4.37495 0
-767.411 -4.33363 0
-765.767 -4.29513 0
-764.12 -4.25775 0
-762.476 -4.22322 0
-760.832 -4.18953 0
-759.186 -4.15819 0
-757.542 -4.12563 0
-755.896 -4.0968 0
-754.252 -4.06953 0
-752.607 -4.04328 0
-750.963 -4.01839 0
-749.317 -3.99566 0
-747.671 -3.97387 0
-746.026 -3.95457 0
-744.382 -3.93771 0
-742.737 -3.92178 0
-741.094 -3.90725 0
-739.45 -3.89349 0
-737.805 -3.88143 0
-736.162 -3.87117 0
-734.519 -3.86197 0
-732.874 -3.85365 0
-731.232 -3.84662 0
-729.589 -3.84027 0
-727.946 -3.83725 0
-726.303 -3.83365 0
-724.661 -3.83391 0
-723.019 -3.83369 0
-721.377 -3.83327 0
-719.735 -3.83542 0
-718.093 -3.83738 0
-716.453 -3.8412 0
-714.812 -3.84538 0
-713.171 -3.84982 0
-711.531 -3.85688 0
-709.89 -3.86382 0
-708.248 -3.87127 0
-706.609 -3.88025 0
-704.971 -3.88927 0
-703.33 -3.90077 0
-701.693 -3.91145 0
-700.055 -3.92231 0
-698.417 -3.93422 0
-696.778 -3.94701 0
-695.141 -3.9613 0
-693.504 -3.97466 0
-691.866 -3.98892 0
-690.23 -4.00472 0
-688.594 -4.01973 0
-686.958 -4.03629 0
-685.322 -4.05149 0
-683.687 -4.06721 0
-682.051 -4.08356 0
-680.417 -4.09985 0
-678.782 -4.11569 0
-677.146 -4.13249 0
-675.512 -4.14862 0
-673.878 -4.16683 0
-672.244 -4.18404 0
-670.61 -4.20071 0
-668.978 -4.21853 0
-667.344 -4.23668 0
-665.712 -4.25417 0
-664.08 -4.27149 0
-662.447 -4.28782 0
-660.816 -4.30308 0
-659.184 -4.31837 0
-657.552 -4.33611 0
-655.921 -4.35024 0
-654.289 -4.36614 0
-652.657 -4.38102 0
-651.026 -4.39712 0
-649.393 -4.41171 0
-647.763 -4.4275 0
-646.133 -4.44133 0
-644.503 -4.45635 0
-642.872 -4.46988 0
-641.242 -4.48344 0
-639.611 -4.49664 0
-637.982 -4.50816 0
-636.352 -4.52018 0
-634.721 -4.53205 0
-633.091 -4.54332 0
-631.461 -4.55381 0
-629.832 -4.56476 0
-628.202 -4.57434 0
-626.573 -4.58411 0
-624.945 -4.59253 0
-623.316 -4.60248 0
-621.687 -4.61174 0
-620.057 -4.6168 0
-618.427 -4.62342 0
-616.798 -4.63005 0
-615.169 -4.63818 0
-613.54 -4.64191 0
-611.91 -4.64815 0
-610.281 -4.65203 0
-608.651 -4.65676 0
-607.022 -4.66064 0
-605.394 -4.66699 0
-603.764 -4.66781 0
-602.134 -4.67129 0
-600.504 -4.6711 0
-598.875 -4.67334 0
-597.246 -4.67524 0
-595.615 -4.67693 0
-593.987 -4.67779 0
-592.357 -4.67901 0
-590.73 -4.67987 0
-589.099 -4.67844 0
-587.469 -4.67793 0
-585.838 -4.67587 0
-584.209 -4.6725 0
-582.58 -4.67025 0
-580.948 -4.67033 0
-579.318 -4.6667 0
-577.688 -4.66505 0
-576.058 -4.66118 0
-574.427 -4.65902 0
-572.797 -4.65597 0
-571.168 -4.65205 0
-569.536 -4.64613 0
-567.904 -4.64157 0
-566.273 -4.63816 0
-564.643 -4.63297 0
-563.013 -4.62965 0
-561.382 -4.62367 0
-559.753 -4.61642 0
-558.122 -4.61017 0
-556.491 -4.60563 0
-554.859 -4.59871 0
-553.228 -4.59417 0
-551.596 -4.58888 0
-549.964 -4.58367 0
-548.334 -4.57536 0
-546.701 -4.5665 0
-545.069 -4.56046 0
-543.436 -4.55436 0
-541.805 -4.54881 0
-540.173 -4.53926 0
-538.541 -4.53426 0
-536.91 -4.52595 0
-535.277 -4.51882 0
-533.645 -4.51152 0
-532.014 -4.5043 0
-530.382 -4.49761 0
-528.75 -4.49059 0
-527.118 -4.48238 0
-525.484 -4.47435 0
-523.854 -4.46613 0
-522.221 -4.45853 0
-520.59 -4.44985 0
-518.955 -4.44323 0
-517.323 -4.43543 0
-515.69 -4.42942 0
-514.057 -4.42241 0
-512.425 -4.41679 0
-510.792 -4.40944 0
-509.159 -4.40008 0
-507.525 -4.39336 0
-505.89 -4.38715 0
-504.257 -4.38092 0
-502.624 -4.37241 0
-500.992 -4.36782 0
-499.358 -4.36076 0
-497.724 -4.35563 0
-496.092 -4.35008 0
-494.457 -4.34315 0
-492.823 -4.33681 0
-491.19 -4.32963 0
-489.556 -4.32629 0
-487.922 -4.32198 0
-486.288 -4.31734 0
-484.656 -4.31083 0
-483.02 -4.30812 0
-481.387 -4.30286 0
-479.754 -4.29867 0
-478.122 -4.29486 0
-476.489 -4.28918 0
-474.857 -4.28506 0
-473.221 -4.27931 0
-471.584 -4.27871 0
-469.952 -4.27351 0
-468.319 -4.27156 0
-466.688 -4.26893 0
-465.054 -4.26479 0
-463.419 -4.26099 0
-461.784 -4.26008 0
-460.149 -4.25625 0
-458.512 -4.25369 0
-456.879 -4.25049 0
-455.247 -4.25043 0
-453.614 -4.25064 0
-451.98 -4.24543 0
-450.348 -4.24571 0
-448.71 -4.24465 0
-447.079 -4.24368 0
-445.446 -4.24492 0
-443.81 -4.24483 0
-442.175 -4.24271 0
-440.543 -4.24334 0
-438.911 -4.24308 0
-437.277 -4.24366 0
-435.643 -4.24387 0
-434.009 -4.24432 0
-432.373 -4.24471 0
-430.743 -4.24486 0
-429.11 -4.24526 0
-427.475 -4.24469 0
-425.839 -4.24796 0
-424.207 -4.24831 0
-422.573 -4.24938 0
-420.941 -4.25379 0
-419.308 -4.25495 0
-417.676 -4.25633 0
-416.041 -4.25778 0
-414.409 -4.2597 0
-412.777 -4.26009 0
-411.143 -4.26416 0
-409.51 -4.26578 0
-407.878 -4.27023 0
-406.245 -4.27202 0
-404.611 -4.27189 0
-402.979 -4.27621 0
-401.343 -4.27905 0
-399.712 -4.28464 0
-398.079 -4.28553 0
-396.448 -4.28434 0
-394.816 -4.28971 0
-393.183 -4.29543 0
-391.55 -4.29757 0
-389.917 -4.30044 0
-388.284 -4.30308 0
-386.65 -4.3099 0
-385.017 -4.31144 0
-383.386 -4.31801 0
-381.751 -4.31723 0
-380.119 -4.32144 0
-378.489 -4.32267 0
-376.856 -4.33066 0
-375.224 -4.33398 0
-373.594 -4.3345 0
-371.96 -4.33743 0
-370.326 -4.34062 0
-368.695 -4.34455 0
-367.063 -4.3503 0
-365.427 -4.35222 0
-363.795 -4.35649 0
-362.162 -4.35918 0
-360.533 -4.36449 0
-358.904 -4.36461 0
-357.271 -4.37105 0
-355.639 -4.37122 0
-354.006 -4.37711 0
-352.373 -4.38041 0
-350.739 -4.38401 0
-349.107 -4.38881 0
-347.474 -4.39181 0
-345.843 -4.39669 0
-344.212 -4.39951 0
-342.579 -4.40206 0
-340.948 -4.40673 0
-339.317 -4.41112 0
-337.682 -4.41148 0
-336.054 -4.41835 0
-334.42 -4.42116 0
-332.79 -4.42775 0
-331.158 -4.42991 0
-329.525 -4.43185 0
-327.895 -4.43915 0
-326.264 -4.43869 0
-324.632 -4.43962 0
-322.998 -4.44544 0
-321.367 -4.44958 0
-319.735 -4.45003 0
-318.104 -4.45459 0
-316.47 -4.45901 0
-314.838 -4.46163 0
-313.209 -4.46386 0
-311.578 -4.46561 0
-309.945 -4.46918 0
-308.314 -4.47003 0
-306.68 -4.474 0
-305.051 -4.47684 0
-303.42 -4.48003 0
-301.788 -4.48142 0
-300.157 -4.48367 0
-298.525 -4.4872 0
-296.891 -4.49135 0
-295.261 -4.49405 0
-293.629 -4.50005 0
-291.996 -4.50208 0
-290.367 -4.50545 0
-288.736 -4.50658 0
-287.104 -4.50673 0
-285.47 -4.50981 0
-283.837 -4.51146 0
-282.206 -4.5097 0
-280.579 -4.51347 0
-278.947 -4.51601 0
-277.316 -4.51519 0
-275.682 -4.51826 0
-274.051 -4.52252 0
-272.419 -4.52554 0
-270.788 -4.52692 0
-269.153 -4.52782 0
-267.522 -4.53066 0
-265.89 -4.53109 0
-264.257 -4.53752 0
-262.626 -4.53788 0
-260.995 -4.53863 0
-259.361 -4.54078 0
-257.733 -4.54159 0
-256.102 -4.54272 0
-254.474 -4.54482 0
-252.841 -4.54133 0
-251.208 -4.54532 0
-249.576 -4.54883 0
-247.945 -4.55076 0
-246.314 -4.54927 0
-244.679 -4.54815 0
-243.047 -4.54947 0
-241.415 -4.55542 0
-239.786 -4.55772 0
-238.156 -4.55708 0
-236.526 -4.55909 0
-234.893 -4.55769 0
-233.261 -4.55829 0
-231.627 -4.56249 0
-229.994 -4.56463 0
-228.364 -4.56521 0
-226.735 -4.56886 0
-225.103 -4.56905 0
-223.473 -4.57197 0
-221.84 -4.57173 0
-220.207 -4.57094 0
-218.576 -4.57013 0
-216.944 -4.57096 0
-215.313 -4.57092 0
-213.683 -4.57751 0
-212.051 -4.57629 0
-210.42 -4.5764 0
-208.79 -4.57773 0
-207.156 -4.58159 0
-205.523 -4.58209 0
-203.893 -4.58113 0
-202.261 -4.58189 0
-200.631 -4.58478 0
-198.998 -4.58375 0
-197.369 -4.58608 0
-195.736 -4.5827 0
-194.105 -4.58531 0
-192.474 -4.58486 0
-190.841 -4.58633 0
-189.213 -4.5852 0
-187.58 -4.58766 0
-185.95 -4.58743 0
-184.321 -4.58779 0
-182.689 -4.59081 0
-181.059 -4.5918 0
-179.429 -4.58897 0
-177.794 -4.59229 0
-176.165 -4.59084 0
-174.529 -4.59223 0
-172.899 -4.59302 0
-171.265 -4.59296 0
-169.631 -4.59784 0
-168.002 -4.59494 0
-166.371 -4.59817 0
-164.74 -4.59489 0
-163.107 -4.59632 0
-161.478 -4.59418 0
-159.849 -4.59387 0
-158.215 -4.59499 0
-156.584 -4.59579 0
-154.951 -4.59732 0
-153.324 -4.59769 0
-151.691 -4.59733 0
-150.056 -4.59957 0
-148.423 -4.60311 0
-146.792 -4.60407 0
-145.159 -4.60323 0
-143.528 -4.60621 0
-141.898 -4.60736 0
-140.266 -4.60716 0
-138.636 -4.60752 0
-137.004 -4.61378 0
-135.373 -4.61567 0
-133.743 -4.6134 0
-132.11 -4.61178 0
-130.477 -4.61247 0
-128.846 -4.6168 0
-127.215 -4.61768 0
-125.584 -4.62008 0
-123.949 -4.61668 0
-122.321 -4.61784 0
-120.688 -4.61703 0
-119.06 -4.62076 0
-117.431 -4.62084 0
-115.802 -4.61913 0
-114.17 -4.6249 0
-112.539 -4.62162 0
-110.906 -4.6215 0
-109.275 -4.62412 0
-107.646 -4.62774 0
-106.013 -4.62318 0
-104.381 -4.62337 0
-102.748 -4.62563 0
-101.116 -4.62687 0
-99.485 -4.6294 0
-97.8574 -4.63295 0
-96.2258 -4.63225 0
-94.5913 -4.63186 0
-92.9596 -4.6324 0
-91.3301 -4.63628 0
-89.6996 -4.63634 0
-88.0696 -4.64225 0
-86.436 -4.63994 0
-84.8075 -4.64293 0
-83.1721 -4.63984 0
-81.5442 -4.64257 0
-79.9123 -4.64199 0
-78.2793 -4.63895 0
-76.6491 -4.64436 0
-75.0164 -4.64801 0
-73.3847 -4.64441 0
-71.7539 -4.64927 0
-70.1264 -4.64909 0
-68.4927 -4.64721 0
-66.8627 -4.64917 0
-65.2356 -4.64981 0
-63.6046 -4.6522 0
-61.9734 -4.6544 0
-60.3435 -4.65548 0
-58.712 -4.65822 0
-57.0814 -4.65527 0
-55.4486 -4.65207 0
-53.8169 -4.65197 0
-52.1873 -4.65195 0
-50.556 -4.65601 0
-48.9219 -4.65663 0
-47.2925 -4.65812 0
-45.663 -4.65531 0
-44.0301 -4.65407 0
-42.4024 -4.65483 0
-40.7729 -4.65439 0
-39.14 -4.66022 0
-37.5087 -4.66143 0
-35.8785 -4.6565 0
-34.246 -4.6575 0
-32.6158 -4.65536 0
-30.986 -4.65538 0
-29.3535 -4.65898 0
-27.7233 -4.65912 0
-26.0948 -4.65643 0
-24.4618 -4.65812 0
-22.826 -4.66031 0
-21.1982 -4.66029 0
-19.5648 -4.66323 0
-17.9391 -4.66361 0
-16.3117 -4.66289 0
-14.6804 -4.66248 0
-13.0503 -4.66176 0
-11.418 -4.65835 0
-9.78907 -4.65967 0
-8.15596 -4.65527 0
-6.5229 -4.65754 0
-4.89516 -4.65919 0
-3.26289 -4.65631 0
-1.62871 -4.65819 0
0 -4.65905 0
-1099.96 67.3749 0
-1099.97 60.2423 0
-1099.97 53.3224 0
-1099.93 46.7064 0
-1099.89 40.4213 0
-1099.89 34.4055 0
-1099.87 28.6038 0
-1099.8 23.0764 0
-1099.67 17.9039 0
-1099.53 13.1157 0
-1099.36 8.71246 0
-1099.17 4.68856 0
-1098.96 1.0341 0
-1098.72 -2.26393 0
-1098.45 -5.22496 0
-1098.14 -7.87031 0
-1097.78 -10.223 0
-1097.39 -12.3065 0
-1096.94 -14.1437 0
-1096.44 -15.7563 0
-1095.9 -17.1635 0
-1095.31 -18.3842 0
-1094.67 -19.4346 0
-1093.99 -20.3295 0
-1093.27 -21.0826 0
-1092.51 -21.7063 0
-1091.7 -22.2117 0
-1090.86 -22.6075 0
-1089.98 -22.904 0
-1089.07 -23.1074 0
-1088.13 -23.2251 0
-1087.16 -23.264 0
-1086.16 -23.2294 0
-1085.12 -23.1266 0
-1084.06 -22.9606 0
-1082.97 -22.7356 0
-1081.85 -22.4566 0
-1080.71 -22.1271 0
-1079.54 -21.751 0
-1078.34 -21.3325 0
-1077.12 -20.8747 0
-1075.88 -20.3815 0
-1074.6 -19.856 0
-1073.31 -19.302 0
-1071.99 -18.7228 0
-1070.65 -18.1207 0
-1069.28 -17.4996 0
-1067.9 -16.8619 0
-1066.49 -16.2113 0
-1065.06 -15.5487 0
-1063.61 -14.8783 0
-1062.14 -14.2019 0
-1060.66 -13.5221 0
-1059.15 -12.8411 0
-1057.63 -12.1606 0
-1056.09 -11.483 0
-1054.54 -10.8099 0
-1052.97 -10.143 0
-1051.38 -9.48384 0
-1049.78 -8.83409 0
-1048.17 -8.19507 0
-1046.55 -7.56739 0
-1044.91 -6.9538 0
-1043.27 -6.35463 0
-1041.61 -5.77026 0
-1039.94 -5.20187 0
-1038.27 -4.65078 0
-1036.58 -4.11745 0
-1034.89 -3.60225 0
-1033.19 -3.10607 0
-1031.49 -2.62923 0
-1029.77 -2.17213 0
-1028.06 -1.73495 0
-1026.33 -1.31862 0
-1024.61 -0.922435 0
-1022.87 -0.547282 0
-1021.14 -0.192809 0
-1019.4 0.140601 0
-1017.66 0.452968 0
-1015.91 0.744752 0
-1014.17 1.01558 0
-1012.42 1.26606 0
-1010.67 1.49639 0
-1008.92 1.7065 0
-1007.17 1.89606 0
-1005.43 2.06629 0
-1003.68 2.21788 0
-1001.93 2.3502 0
-1000.18 2.46424 0
-998.432 2.55965 0
-996.686 2.63797 0
-994.942 2.69933 0
-993.199 2.74371 0
-991.459 2.77236 0
-989.72 2.78476 0
-987.985 2.78241 0
-986.251 2.76522 0
-984.521 2.7341 0
-982.793 2.68943 0
-981.068 2.63177 0
-979.347 2.56194 0
-977.628 2.47988 0
-975.912 2.38735 0
-974.2 2.2847 0
-972.491 2.1711 0
-970.786 2.04843 0
-969.084 1.91744 0
-967.385 1.77807 0
-965.691 1.63058 0
-963.999 1.47661 0
-962.31 1.3159 0
-960.626 1.1493 0
-958.945 0.978051 0
-957.267 0.800847 0
-955.593 0.619822 0
-953.922 0.435491 0
-952.255 0.248006 0
-950.592 0.0572906 0
-948.931 -0.135721 0
-947.273 -0.330238 0
-945.62 -0.525734 0
-943.969 -0.722591 0
-942.32 -0.919931 0
-940.675 -1.11704 0
-939.033 -1.31368 0
-937.393 -1.50918 0
-935.756 -1.70332 0
-934.122 -1.89623 0
-932.491 -2.08824 0
-930.862 -2.27739 0
-929.234 -2.46468 0
-927.61 -2.64856 0
-925.987 -2.82932 0
-924.367 -3.00651 0
-922.748 -3.17964 0
-921.131 -3.34997 0
-919.516 -3.51542 0
-917.903 -3.67673 0
-916.291 -3.83377 0
-914.68 -3.98581 0
-913.071 -4.13348 0
-911.464 -4.27634 0
-909.858 -4.41376 0
-908.252 -4.54592 0
-906.647 -4.67281 0
-905.044 -4.79466 0
-903.441 -4.91029 0
-901.839 -5.02103 0
-900.238 -5.12613 0
-898.637 -5.22559 0
-897.037 -5.31906 0
-895.437 -5.40712 0
-893.838 -5.48984 0
-892.238 -5.56639 0
-890.638 -5.63873 0
-889.039 -5.70413 0
-887.44 -5.76483 0
-885.841 -5.8189 0
-884.242 -5.86803 0
-882.643 -5.91146 0
-881.043 -5.95084 0
-879.443 -5.98444 0
-877.843 -6.01215 0
-876.243 -6.0352 0
-874.642 -6.05324 0
-873.041 -6.06752 0
-871.44 -6.07657 0
-869.837 -6.07958 0
-868.234 -6.07795 0
-866.631 -6.07415 0
-865.027 -6.06439 0
-863.421 -6.05122 0
-861.815 -6.03396 0
-860.209 -6.01342 0
-858.602 -5.98822 0
-856.994 -5.95968 0
-855.384 -5.92709 0
-853.775 -5.89201 0
-852.164 -5.85317 0
-850.553 -5.81183 0
-848.941 -5.76737 0
-847.328 -5.71992 0
-845.714 -5.67025 0
-844.099 -5.61811 0
-842.484 -5.56377 0
-840.867 -5.50765 0
-839.25 -5.44964 0
-837.631 -5.38994 0
-836.011 -5.32887 0
-834.392 -5.26501 0
-832.771 -5.20034 0
-831.149 -5.13323 0
-829.526 -5.0652 0
-827.902 -4.99802 0
-826.277 -4.92876 0
-824.651 -4.85895 0
-823.025 -4.7876 0
-821.399 -4.71697 0
-819.77 -4.64627 0
-818.141 -4.57433 0
-816.512 -4.50286 0
-814.882 -4.43159 0
-813.252 -4.35925 0
-811.62 -4.28736 0
-809.987 -4.21612 0
-808.355 -4.14552 0
-806.721 -4.07474 0
-805.086 -4.0052 0
-803.451 -3.93525 0
-801.816 -3.8668 0
-800.18 -3.79871 0
-798.543 -3.73148 0
-796.906 -3.66499 0
-795.269 -3.59959 0
-793.629 -3.5361 0
-791.991 -3.47393 0
-790.352 -3.41364 0
-788.713 -3.35365 0
-787.073 -3.29464 0
-785.433 -3.23682 0
-783.792 -3.18138 0
-782.151 -3.12626 0
-780.509 -3.07145 0
-778.868 -3.02008 0
-777.227 -2.96976 0
-775.585 -2.92113 0
-773.942 -2.87332 0
-772.3 -2.82793 0
-770.658 -2.78467 0
-769.015 -2.74233 0
-767.373 -2.7021 0
-765.729 -2.66212 0
-764.085 -2.62534 0
-762.443 -2.5911 0
-760.799 -2.55669 0
-759.155 -2.52423 0
-757.512 -2.49346 0
-755.869 -2.46448 0
-754.226 -2.43717 0
-752.583 -2.41068 0
-750.939 -2.38566 0
-749.295 -2.36301 0
-747.652 -2.34115 0
-746.009 -2.32309 0
-744.366 -2.30596 0
-742.722 -2.28942 0
-741.08 -2.27483 0
-739.437 -2.2617 0
-737.794 -2.24956 0
-736.152 -2.23911 0
-734.509 -2.23004 0
-732.867 -2.22301 0
-731.226 -2.21584 0
-729.584 -2.21037 0
-727.942 -2.20615 0
-726.301 -2.20371 0
-724.66 -2.20378 0
-723.018 -2.20405 0
-721.377 -2.20358 0
-719.737 -2.20544 0
-718.096 -2.20831 0
-716.456 -2.21274 0
-714.816 -2.21655 0
-713.176 -2.22243 0
-711.537 -2.22879 0
-709.898 -2.23555 0
-708.259 -2.24389 0
-706.62 -2.25372 0
-704.981 -2.26266 0
-703.343 -2.27338 0
-701.705 -2.28584 0
-700.067 -2.29683 0
-698.429 -2.30827 0
-696.792 -2.32096 0
-695.155 -2.33616 0
-693.518 -2.34923 0
-691.88 -2.3641 0
-690.244 -2.37961 0
-688.609 -2.39605 0
-686.973 -2.41146 0
-685.337 -2.42667 0
-683.702 -2.44333 0
-682.068 -2.46007 0
-680.431 -2.47727 0
-678.797 -2.49259 0
-677.163 -2.50928 0
-675.529 -2.52648 0
-673.895 -2.54424 0
-672.261 -2.56114 0
-670.628 -2.57951 0
-668.995 -2.59771 0
-667.362 -2.61475 0
-665.729 -2.63257 0
-664.096 -2.65061 0
-662.463 -2.66669 0
-660.831 -2.68282 0
-659.2 -2.69859 0
-657.568 -2.71462 0
-655.935 -2.73074 0
-654.304 -2.7465 0
-652.672 -2.76113 0
-651.041 -2.77631 0
-649.409 -2.79132 0
-647.778 -2.80785 0
-646.148 -2.82319 0
-644.518 -2.83722 0
-642.885 -2.84993 0
-641.255 -2.86446 0
-639.624 -2.87765 0
-637.994 -2.89033 0
-636.363 -2.9007 0
-634.733 -2.9138 0
-633.102 -2.9245 0
-631.472 -2.93572 0
-629.842 -2.94616 0
-628.213 -2.95735 0
-626.583 -2.96606 0
-624.954 -2.9746 0
-623.324 -2.98345 0
-621.693 -2.99319 0
-620.064 -2.99906 0
-618.434 -3.00641 0
-616.804 -3.01293 0
-615.175 -3.01885 0
-613.545 -3.02395 0
-611.915 -3.02932 0
-610.285 -3.03419 0
-608.656 -3.03883 0
-607.027 -3.0434 0
-605.397 -3.04832 0
-603.766 -3.04952 0
-602.136 -3.05192 0
-600.506 -3.05336 0
-598.876 -3.05622 0
-597.247 -3.0574 0
-595.618 -3.05757 0
-593.987 -3.06061 0
-592.357 -3.06162 0
-590.729 -3.06125 0
-589.099 -3.05996 0
-587.468 -3.05857 0
-585.838 -3.05685 0
-584.207 -3.05462 0
-582.578 -3.05269 0
-580.946 -3.0507 0
-579.316 -3.04846 0
-577.686 -3.04653 0
-576.054 -3.04259 0
-574.425 -3.03969 0
-572.793 -3.03693 0
-571.162 -3.03203 0
-569.53 -3.02744 0
-567.901 -3.02249 0
-566.27 -3.01864 0
-564.638 -3.0134 0
-563.008 -3.01016 0
-561.378 -3.00552 0
-559.746 -2.9981 0
-558.115 -2.99031 0
-556.484 -2.98568 0
-554.853 -2.97979 0
-553.222 -2.97393 0
-551.59 -2.96855 0
-549.959 -2.96307 0
-548.327 -2.95578 0
-546.696 -2.94562 0
-545.063 -2.93948 0
-543.431 -2.93335 0
-541.8 -2.92724 0
-540.167 -2.91911 0
-538.535 -2.91296 0
-536.902 -2.90529 0
-535.271 -2.89846 0
-533.639 -2.89225 0
-532.007 -2.88472 0
-530.375 -2.8773 0
-528.743 -2.86865 0
-527.11 -2.86082 0
-525.478 -2.85304 0
-523.846 -2.84558 0
-522.214 -2.83763 0
-520.582 -2.82923 0
-518.949 -2.82062 0
-517.316 -2.81448 0
-515.683 -2.80715 0
-514.051 -2.80128 0
-512.416 -2.79532 0
-510.784 -2.78758 0
-509.151 -2.77928 0
-507.517 -2.7727 0
-505.884 -2.76412 0
-504.252 -2.75896 0
-502.619 -2.75273 0
-500.986 -2.74574 0
-499.351 -2.73962 0
-497.718 -2.73372 0
-496.084 -2.72813 0
-494.449 -2.7211 0
-492.817 -2.71672 0
-491.185 -2.70914 0
-489.551 -2.70467 0
-487.918 -2.69963 0
-486.284 -2.69439 0
-484.651 -2.6897 0
-483.018 -2.68557 0
-481.383 -2.68126 0
-479.75 -2.67799 0
-478.117 -2.67365 0
-476.483 -2.667 0
-474.848 -2.66199 0
-473.215 -2.65711 0
-471.583 -2.65548 0
-469.949 -2.65273 0
-468.316 -2.648 0
-466.682 -2.6452 0
-465.05 -2.64151 0
-463.417 -2.63929 0
-461.782 -2.63557 0
-460.145 -2.63206 0
-458.512 -2.63075 0
-456.878 -2.62785 0
-455.246 -2.62679 0
-453.614 -2.62668 0
-451.978 -2.62245 0
-450.344 -2.62304 0
-448.711 -2.62247 0
-447.077 -2.6226 0
-445.445 -2.6214 0
-443.811 -2.62223 0
-442.178 -2.62048 0
-440.545 -2.62034 0
-438.911 -2.62083 0
-437.277 -2.62193 0
-435.642 -2.62274 0
-434.009 -2.62345 0
-432.376 -2.62335 0
-430.744 -2.62467 0
-429.11 -2.62338 0
-427.478 -2.6229 0
-425.844 -2.62642 0
-424.211 -2.62717 0
-422.58 -2.62746 0
-420.943 -2.63173 0
-419.311 -2.63063 0
-417.678 -2.63406 0
-416.045 -2.63673 0
-414.41 -2.63922 0
-412.778 -2.64017 0
-411.145 -2.64068 0
-409.51 -2.64468 0
-407.878 -2.64868 0
-406.246 -2.64917 0
-404.613 -2.65094 0
-402.981 -2.65365 0
-401.347 -2.65667 0
-399.716 -2.66109 0
-398.083 -2.66313 0
-396.45 -2.66655 0
-394.819 -2.66882 0
-393.186 -2.67353 0
-391.552 -2.67694 0
-389.921 -2.67951 0
-388.289 -2.68268 0
-386.654 -2.68791 0
-385.022 -2.69143 0
-383.39 -2.69548 0
-381.758 -2.69765 0
-380.124 -2.6987 0
-378.492 -2.70206 0
-376.861 -2.70808 0
-375.228 -2.71255 0
-373.597 -2.71206 0
-371.963 -2.71487 0
-370.33 -2.72047 0
-368.698 -2.72388 0
-367.064 -2.72894 0
-365.432 -2.73208 0
-363.799 -2.73425 0
-362.167 -2.73956 0
-360.537 -2.74344 0
-358.903 -2.7465 0
-357.272 -2.74771 0
-355.641 -2.7513 0
-354.008 -2.75695 0
-352.376 -2.75855 0
-350.744 -2.76405 0
-349.112 -2.7687 0
-347.479 -2.77239 0
-345.848 -2.77545 0
-344.216 -2.77859 0
-342.586 -2.78053 0
-340.953 -2.78552 0
-339.319 -2.78769 0
-337.687 -2.79314 0
-336.056 -2.79918 0
-334.426 -2.80079 0
-332.793 -2.80642 0
-331.161 -2.80918 0
-329.53 -2.81097 0
-327.897 -2.81805 0
-326.265 -2.81742 0
-324.634 -2.82039 0
-323.002 -2.82491 0
-321.37 -2.82934 0
-319.74 -2.83015 0
-318.107 -2.83545 0
-316.475 -2.83914 0
-314.845 -2.84127 0
-313.213 -2.84347 0
-311.581 -2.84508 0
-309.947 -2.84909 0
-308.315 -2.85139 0
-306.685 -2.85362 0
-305.053 -2.8558 0
-303.422 -2.85887 0
-301.79 -2.86224 0
-300.158 -2.8643 0
-298.526 -2.8676 0
-296.895 -2.87116 0
-295.263 -2.87352 0
-293.631 -2.87864 0
-291.999 -2.88186 0
-290.367 -2.88474 0
-288.737 -2.88527 0
-287.104 -2.88535 0
-285.472 -2.89015 0
-283.84 -2.89239 0
-282.211 -2.89127 0
-280.579 -2.89276 0
-278.946 -2.89511 0
-277.317 -2.89481 0
-275.685 -2.89693 0
-274.052 -2.8996 0
-272.419 -2.90375 0
-270.786 -2.90445 0
-269.154 -2.90705 0
-267.524 -2.9101 0
-265.893 -2.9126 0
-264.261 -2.91524 0
-262.629 -2.91755 0
-260.998 -2.91691 0
-259.365 -2.92029 0
-257.731 -2.92254 0
-256.103 -2.92428 0
-254.471 -2.92465 0
-252.839 -2.92144 0
-251.208 -2.92559 0
-249.577 -2.92689 0
-247.943 -2.9309 0
-246.311 -2.92912 0
-244.68 -2.92905 0
-243.051 -2.92991 0
-241.418 -2.935 0
-239.786 -2.9366 0
-238.155 -2.93843 0
-236.524 -2.93857 0
-234.894 -2.94042 0
-233.263 -2.93893 0
-231.632 -2.94163 0
-230 -2.9456 0
-228.369 -2.94611 0
-226.736 -2.94634 0
-225.106 -2.94841 0
-223.473 -2.94955 0
-221.84 -2.95023 0
-220.21 -2.95051 0
-218.577 -2.95115 0
-216.947 -2.95164 0
-215.314 -2.95286 0
-213.684 -2.95607 0
-212.052 -2.95836 0
-210.422 -2.95496 0
-208.79 -2.95651 0
-207.158 -2.95935 0
-205.525 -2.96124 0
-203.895 -2.96036 0
-202.262 -2.96372 0
-200.632 -2.96435 0
-198.999 -2.96326 0
-197.368 -2.96563 0
-195.737 -2.96376 0
-194.106 -2.96422 0
-192.474 -2.96384 0
-190.843 -2.96629 0
-189.212 -2.96551 0
-187.581 -2.96893 0
-185.952 -2.96842 0
-184.322 -2.96983 0
-182.69 -2.96942 0
-181.057 -2.97342 0
-179.425 -2.97128 0
-177.795 -2.97181 0
-176.162 -2.97129 0
-174.53 -2.9721 0
-172.899 -2.97247 0
-171.267 -2.97324 0
-169.634 -2.97554 0
-168.001 -2.97733 0
-166.371 -2.97812 0
-164.739 -2.97385 0
-163.11 -2.97676 0
-161.479 -2.97609 0
-159.848 -2.97614 0
-158.216 -2.97554 0
-156.585 -2.97727 0
-154.954 -2.97759 0
-153.322 -2.97965 0
-151.691 -2.97774 0
-150.058 -2.97996 0
-148.425 -2.98227 0
-146.793 -2.98285 0
-145.162 -2.9842 0
-143.532 -2.98602 0
-141.898 -2.98607 0
-140.267 -2.98904 0
-138.638 -2.98778 0
-137.006 -2.99224 0
-135.374 -2.99423 0
-133.743 -2.99278 0
-132.111 -2.99287 0
-130.481 -2.99256 0
-128.85 -2.99621 0
-127.215 -2.99819 0
-125.583 -2.99725 0
-123.954 -2.99789 0
-122.321 -2.99782 0
-120.691 -2.99687 0
-119.061 -3.00243 0
-117.431 -3.00217 0
-115.801 -3.00091 0
-114.17 -3.00284 0
-112.537 -3.00323 0
-110.906 -3.00309 0
-109.275 -3.00252 0
-107.642 -3.0065 0
-106.011 -3.00295 0
-104.38 -3.0051 0
-102.748 -3.00784 0
-101.119 -3.00834 0
-99.4891 -3.01194 0
-97.8562 -3.01412 0
-96.2242 -3.01287 0
-94.5936 -3.01246 0
-92.9627 -3.01466 0
-91.3299 -3.01638 0
-89.6994 -3.01843 0
-88.0662 -3.02058 0
-86.437 -3.02087 0
-84.8062 -3.02063 0
-83.1752 -3.02245 0
-81.5436 -3.02072 0
-79.9123 -3.02275 0
-78.2825 -3.02235 0
-76.6509 -3.02545 0
-75.0184 -3.02641 0
-73.3873 -3.02777 0
-71.7568 -3.02988 0
-70.1257 -3.03195 0
-68.4955 -3.02848 0
-66.8635 -3.02957 0
-65.2337 -3.03272 0
-63.6046 -3.03404 0
-61.9761 -3.03537 0
-60.3432 -3.03557 0
-58.7119 -3.0347 0
-57.0802 -3.0359 0
-55.449 -3.0356 0
-53.8217 -3.03378 0
-52.1898 -3.03305 0
-50.5608 -3.03407 0
-48.9296 -3.03681 0
-47.2944 -3.03743 0
-45.6611 -3.03698 0
-44.0322 -3.03546 0
-42.4024 -3.03634 0
-40.7726 -3.03689 0
-39.1426 -3.03957 0
-37.5112 -3.04049 0
-35.878 -3.03965 0
-34.2456 -3.03699 0
-32.6169 -3.03769 0
-30.9886 -3.03756 0
-29.3556 -3.03771 0
-27.725 -3.0392 0
-26.0924 -3.03713 0
-24.4605 -3.03951 0
-22.83 -3.04019 0
-21.2008 -3.04304 0
-19.5708 -3.04374 0
-17.9385 -3.04425 0
-16.3072 -3.04242 0
-14.6782 -3.04219 0
-13.0478 -3.0426 0
-11.4176 -3.03733 0
-9.78673 -3.03777 0
-8.15483 -3.03474 0
-6.5236 -3.03763 0
-4.88962 -3.03862 0
-3.25861 -3.0369 0
-1.63211 -3.03687 0
0 -3.03893 0
-1107.39 67.9426 0
-1106.99 60.6205 0
-1106.73 53.7253 0
-1106.44 47.1201 0
-1106.14 40.7947 0
-1105.84 34.7423 0
-1105.53 28.9742 0
-1105.16 23.5009 0
-1104.71 18.3559 0
-1104.22 13.5765 0
-1103.7 9.17778 0
-1103.16 5.15957 0
-1102.59 1.51377 0
-1102.01 -1.7726 0
-1101.41 -4.71731 0
-1100.79 -7.34191 0
-1100.15 -9.66984 0
-1099.49 -11.7252 0
-1098.8 -13.5311 0
-1098.08 -15.1102 0
-1097.33 -16.4833 0
-1096.55 -17.6692 0
-1095.75 -18.6848 0
-1094.91 -19.5457 0
-1094.04 -20.2661 0
-1093.15 -20.8574 0
-1092.23 -21.3313 0
-1091.28 -21.6974 0
-1090.3 -21.964 0
-1089.3 -22.1392 0
-1088.27 -22.2297 0
-1087.22 -22.2418 0
-1086.14 -22.1806 0
-1085.04 -22.052 0
-1083.92 -21.8609 0
-1082.77 -21.6109 0
-1081.6 -21.3071 0
-1080.41 -20.9529 0
-1079.19 -20.5531 0
-1077.95 -20.1105 0
-1076.69 -19.6295 0
-1075.41 -19.1131 0
-1074.11 -18.5651 0
-1072.79 -17.989 0
-1071.44 -17.388 0
-1070.08 -16.7647 0
-1068.69 -16.1229 0
-1067.29 -15.4653 0
-1065.87 -14.7945 0
-1064.43 -14.1129 0
-1062.97 -13.4242 0
-1061.5 -12.7304 0
-1060.01 -12.0331 0
-1058.5 -11.3355 0
-1056.98 -10.6396 0
-1055.45 -9.94665 0
-1053.9 -9.25893 0
-1052.33 -8.57769 0
-1050.75 -7.90512 0
-1049.17 -7.24282 0
-1047.56 -6.59211 0
-1045.95 -5.95336 0
-1044.33 -5.32872 0
-1042.7 -4.71914 0
-1041.05 -4.1257 0
-1039.4 -3.54851 0
-1037.74 -2.98913 0
-1036.08 -2.44754 0
-1034.4 -1.92561 0
-1032.72 -1.42246 0
-1031.03 -0.939808 0
-1029.34 -0.476937 0
-1027.64 -0.0351092 0
-1025.94 0.386484 0
-1024.23 0.786489 0
-1022.52 1.1656 0
-1020.8 1.52329 0
-1019.08 1.85911 0
-1017.36 2.17433 0
-1015.64 2.46788 0
-1013.91 2.7406 0
-1012.19 2.9922 0
-1010.46 3.22362 0
-1008.73 3.43406 0
-1007 3.62402 0
-1005.27 3.79437 0
-1003.53 3.94586 0
-1001.8 4.07764 0
-1000.07 4.1904 0
-998.344 4.2852 0
-996.615 4.36236 0
-994.887 4.42183 0
-993.16 4.46477 0
-991.436 4.49114 0
-989.712 4.50188 0
-987.991 4.49725 0
-986.271 4.4778 0
-984.554 4.44407 0
-982.839 4.39667 0
-981.127 4.33605 0