<?xml version="1.0"?>
<VTKFile type="StructuredGrid"  version="0.1" byte_order="LittleEndian" compressor="vtkZLibDataCompressor">
  <StructuredGrid WholeExtent="0 700 0 30 0 0">
    <Piece Extent="0 700 0 30 0 0">
      <PointData Vectors="Velocity">
        <DataArray type="Float32" Name="Velocity" NumberOfComponents="3" format="ascii">
-1093.5 69.2548 0
-1093.65 62.0695 0
-1093.88 55.0631 0
-1094.14 48.3502 0
-1094.38 41.9638 0
-1094.57 35.8438 0
-1094.76 29.9364 0
-1094.99 24.3016 0
-1095.23 19.0192 0
-1095.46 14.1157 0
-1095.67 9.59153 0
-1095.85 5.44012 0
-1095.99 1.65089 0
-1096.1 -1.79024 0
-1096.15 -4.90036 0
-1096.15 -7.6996 0
-1096.08 -10.2099 0
-1095.95 -12.4521 0
-1095.75 -14.4468 0
-1095.49 -16.2146 0
-1095.15 -17.7741 0
-1094.76 -19.1419 0
-1094.3 -20.3342 0
-1093.79 -21.3657 0
-1093.22 -22.2488 0
-1092.6 -22.9974 0
-1091.93 -23.6206 0
-1091.21 -24.1291 0
-1090.46 -24.5324 0
-1089.65 -24.8367 0
-1088.82 -25.0508 0
-1087.94 -25.1801 0
-1087.03 -25.231 0
-1086.08 -25.2088 0
-1085.1 -25.1191 0
-1084.08 -24.9663 0
-1083.04 -24.7542 0
-1081.96 -24.4878 0
-1080.86 -24.1712 0
-1079.72 -23.8082 0
-1078.56 -23.4008 0
-1077.36 -22.9549 0
-1076.14 -22.4727 0
-1074.89 -21.9585 0
-1073.62 -21.4147 0
-1072.31 -20.8444 0
-1070.99 -20.2519 0
-1069.63 -19.6381 0
-1068.26 -19.0078 0
-1066.85 -18.3634 0
-1065.43 -17.707 0
-1063.98 -17.0415 0
-1062.52 -16.3692 0
-1061.03 -15.6915 0
-1059.52 -15.0123 0
-1057.99 -14.3331 0
-1056.45 -13.6546 0
-1054.88 -12.979 0
-1053.3 -12.31 0
-1051.71 -11.6477 0
-1050.1 -10.9939 0
-1048.47 -10.3496 0
-1046.83 -9.71605 0
-1045.18 -9.09494 0
-1043.52 -8.48752 0
-1041.84 -7.89421 0
-1040.16 -7.31595 0
-1038.46 -6.75383 0
-1036.76 -6.20908 0
-1035.05 -5.68213 0
-1033.33 -5.17257 0
-1031.6 -4.68145 0
-1029.87 -4.2099 0
-1028.12 -3.75792 0
-1026.38 -3.32512 0
-1024.63 -2.91291 0
-1022.87 -2.52085 0
-1021.11 -2.15017 0
-1019.35 -1.79945 0
-1017.59 -1.46899 0
-1015.82 -1.15936 0
-1014.05 -0.86982 0
-1012.28 -0.600398 0
-1010.51 -0.350515 0
-1008.74 -0.121916 0
-1006.96 0.0869336 0
-1005.19 0.276138 0
-1003.42 0.446539 0
-1001.65 0.598136 0
-999.874 0.730327 0
-998.104 0.84488 0
-996.336 0.94161 0
-994.571 1.0218 0
-992.806 1.08428 0
-991.045 1.13035 0
-989.286 1.15995 0
-987.529 1.17417 0
-985.776 1.17335 0
-984.025 1.15789 0
-982.278 1.1284 0
-980.534 1.08654 0
-978.794 1.02957 0
-977.057 0.962051 0
-975.325 0.882064 0
-973.596 0.791622 0
-971.871 0.690228 0
-970.149 0.579234 0
-968.432 0.458513 0
-966.719 0.328914 0
-965.01 0.189806 0
-963.304 0.0439753 0
-961.603 -0.108788 0
-959.906 -0.269191 0
-958.212 -0.434973 0
-956.523 -0.607144 0
-954.838 -0.783809 0
-953.157 -0.965365 0
-951.48 -1.14988 0
-949.806 -1.33823 0
-948.137 -1.53043 0
-946.472 -1.72408 0
-944.809 -1.92139 0
-943.151 -2.11911 0
-941.496 -2.31871 0
-939.844 -2.51842 0
-938.196 -2.71734 0
-936.551 -2.91846 0
-934.91 -3.11759 0
-933.271 -3.31586 0
-931.636 -3.51338 0
-930.003 -3.70845 0
-928.373 -3.90206 0
-926.745 -4.09394 0
-925.121 -4.2832 0
-923.499 -4.46909 0
-921.879 -4.65252 0
-920.262 -4.83167 0
-918.646 -5.00859 0
-917.032 -5.18 0
-915.42 -5.34918 0
-913.81 -5.51261 0
-912.202 -5.67189 0
-910.596 -5.82724 0
-908.99 -5.97682 0
-907.387 -6.12139 0
-905.784 -6.26243 0
-904.183 -6.39827 0
-902.582 -6.52816 0
-900.983 -6.65282 0
-899.384 -6.77194 0
-897.787 -6.88617 0
-896.19 -6.99474 0
-894.593 -7.09714 0
-892.997 -7.19463 0
-891.402 -7.28652 0
-889.806 -7.37159 0
-888.211 -7.45259 0
-886.616 -7.52709 0
-885.021 -7.5973 0
-883.426 -7.66156 0
-881.831 -7.7185 0
-880.237 -7.77234 0
-878.642 -7.81918 0
-877.047 -7.86182 0
-875.451 -7.89799 0
-873.854 -7.9309 0
-872.258 -7.95687 0
-870.661 -7.97869 0
-869.063 -7.99611 0
-867.465 -8.00758 0
-865.866 -8.01477 0
-864.266 -8.01735 0
-862.666 -8.01597 0
-861.066 -8.00956 0
-859.464 -7.99929 0
-857.862 -7.98466 0
-856.259 -7.96545 0
-854.654 -7.94417 0
-853.048 -7.91886 0
-851.443 -7.88877 0
-849.836 -7.85592 0
-848.228 -7.82014 0
-846.619 -7.78098 0
-845.009 -7.73895 0
-843.398 -7.69409 0
-841.785 -7.64586 0
-840.173 -7.59561 0
-838.559 -7.5428 0
-836.944 -7.48749 0
-835.328 -7.42931 0
-833.71 -7.3705 0
-832.093 -7.30964 0
-830.473 -7.24738 0
-828.854 -7.1832 0
-827.233 -7.11603 0
-825.61 -7.04976 0
-823.987 -6.98169 0
-822.363 -6.91271 0
-820.738 -6.84175 0
-819.112 -6.77166 0
-817.485 -6.69959 0
-815.857 -6.6274 0
-814.228 -6.5545 0
-812.599 -6.48115 0
-810.968 -6.40747 0
-809.336 -6.33416 0
-807.704 -6.26122 0
-806.071 -6.18794 0
-804.437 -6.11596 0
-802.802 -6.04254 0
-801.167 -5.97155 0
-799.531 -5.90046 0
-797.894 -5.82916 0
-796.257 -5.75837 0
-794.619 -5.6885 0
-792.98 -5.61926 0
-791.342 -5.55144 0
-789.701 -5.48454 0
-788.06 -5.41852 0
-786.418 -5.35198 0
-784.777 -5.28965 0
-783.135 -5.22712 0
-781.492 -5.16638 0
-779.849 -5.10572 0
-778.205 -5.04688 0
-776.562 -4.98724 0
-774.918 -4.93371 0
-773.274 -4.87788 0
-771.63 -4.82467 0
-769.984 -4.77432 0
-768.339 -4.7241 0
-766.694 -4.67533 0
-765.048 -4.62689 0
-763.4 -4.58248 0
-761.755 -4.53898 0
-760.109 -4.49706 0
-758.464 -4.45668 0
-756.817 -4.41876 0
-755.17 -4.3797 0
-753.523 -4.34441 0
-751.876 -4.30967 0
-750.23 -4.27767 0
-748.584 -4.24712 0
-746.936 -4.21815 0
-745.29 -4.19031 0
-743.644 -4.16294 0
-741.998 -4.13737 0
-740.351 -4.11508 0
-738.704 -4.09449 0
-737.058 -4.07436 0
-735.41 -4.05525 0
-733.764 -4.03862 0
-732.118 -4.02335 0
-730.473 -4.0084 0
-728.827 -3.99575 0
-727.183 -3.98407 0
-725.538 -3.97333 0
-723.893 -3.96501 0
-722.249 -3.95683 0
-720.604 -3.95056 0
-718.959 -3.94679 0
-717.316 -3.94235 0
-715.672 -3.93906 0
-714.029 -3.9376 0
-712.384 -3.93764 0
-710.741 -3.93831 0
-709.099 -3.93953 0
-707.457 -3.94238 0
-705.816 -3.94564 0
-704.174 -3.94963 0
-702.532 -3.95436 0
-700.891 -3.95972 0
-699.249 -3.9663 0
-697.607 -3.97419 0
-695.967 -3.98229 0
-694.327 -3.99129 0
-692.687 -3.99945 0
-691.047 -4.01045 0
-689.407 -4.02094 0
-687.768 -4.0309 0
-686.13 -4.04287 0
-684.491 -4.05494 0
-682.852 -4.06705 0
-681.214 -4.08073 0
-679.576 -4.09341 0
-677.939 -4.10717 0
-676.302 -4.12133 0
-674.665 -4.13609 0
-673.03 -4.14861 0
-671.393 -4.16281 0
-669.757 -4.17704 0
-668.122 -4.19367 0
-666.486 -4.20777 0
-664.851 -4.22228 0
-663.215 -4.23779 0
-661.58 -4.25215 0
-659.946 -4.26812 0
-658.31 -4.28219 0
-656.676 -4.29626 0
-655.043 -4.31155 0
-653.41 -4.324 0
-651.776 -4.33859 0
-650.143 -4.35287 0
-648.509 -4.36713 0
-646.876 -4.37989 0
-645.242 -4.39359 0
-643.609 -4.40615 0
-641.978 -4.42086 0
-640.345 -4.43429 0
-638.711 -4.44644 0
-637.08 -4.45825 0
-635.447 -4.47079 0
-633.816 -4.48114 0
-632.185 -4.49259 0
-630.553 -4.5011 0
-628.921 -4.51235 0
-627.289 -4.52065 0
-625.658 -4.52986 0
-624.026 -4.53828 0
-622.396 -4.54865 0
-620.764 -4.55506 0
-619.133 -4.5618 0
-617.501 -4.57081 0
-615.87 -4.57705 0
-614.24 -4.58205 0
-612.609 -4.58789 0
-610.978 -4.59217 0
-609.348 -4.59755 0
-607.717 -4.60078 0
-606.087 -4.60429 0
-604.455 -4.60737 0
-602.825 -4.61024 0
-601.194 -4.61143 0
-599.564 -4.61425 0
-597.934 -4.61492 0
-596.304 -4.61604 0
-594.673 -4.61517 0
-593.042 -4.61572 0
-591.411 -4.61445 0
-589.781 -4.61262 0
-588.148 -4.61212 0
-586.519 -4.60922 0
-584.888 -4.60875 0
-583.257 -4.60495 0
-581.626 -4.60099 0
-579.995 -4.59686 0
-578.364 -4.59431 0
-576.733 -4.58805 0
-575.101 -4.58534 0
-573.47 -4.57882 0
-571.837 -4.57479 0
-570.205 -4.56889 0
-568.574 -4.56196 0
-566.943 -4.55694 0
-565.311 -4.54942 0
-563.68 -4.54199 0
-562.047 -4.53535 0
-560.415 -4.5271 0
-558.784 -4.51895 0
-557.153 -4.51083 0
-555.521 -4.50152 0
-553.887 -4.49301 0
-552.255 -4.48385 0
-550.623 -4.47408 0
-548.992 -4.46602 0
-547.359 -4.45594 0
-545.725 -4.44534 0
-544.092 -4.43725 0
-542.459 -4.42529 0
-540.827 -4.41426 0
-539.194 -4.40496 0
-537.561 -4.39236 0
-535.928 -4.38089 0
-534.294 -4.37113 0
-532.661 -4.36075 0
-531.029 -4.34812 0
-529.395 -4.33706 0
-527.762 -4.32365 0
-526.128 -4.31338 0
-524.494 -4.30065 0
-522.859 -4.29032 0
-521.227 -4.27784 0
-519.592 -4.2663 0
-517.96 -4.25262 0
-516.325 -4.24151 0
-514.691 -4.22982 0
-513.056 -4.21881 0
-511.42 -4.20709 0
-509.787 -4.19524 0
-508.153 -4.18569 0
-506.52 -4.17161 0
-504.884 -4.16091 0
-503.25 -4.14916 0
-501.615 -4.13695 0
-499.976 -4.12272 0
-498.345 -4.1142 0
-496.71 -4.10204 0
-495.075 -4.08956 0
-493.439 -4.07982 0
-491.804 -4.06801 0
-490.168 -4.05683 0
-488.535 -4.04472 0
-486.901 -4.03463 0
-485.266 -4.02594 0
-483.631 -4.01504 0
-481.995 -4.00248 0
-480.361 -3.99575 0
-478.728 -3.98512 0
-477.091 -3.97612 0
-475.453 -3.96656 0
-473.818 -3.95634 0
-472.183 -3.94683 0
-470.548 -3.93875 0
-468.914 -3.92838 0
-467.279 -3.92053 0
-465.643 -3.91025 0
-464.007 -3.90188 0
-462.373 -3.89388 0
-460.739 -3.88592 0
-459.102 -3.87655 0
-457.466 -3.86854 0
-455.829 -3.86319 0
-454.194 -3.85476 0
-452.56 -3.84735 0
-450.924 -3.8405 0
-449.288 -3.83578 0
-447.652 -3.82947 0
-446.016 -3.82233 0
-444.38 -3.81462 0
-442.745 -3.8094 0
-441.11 -3.8031 0
-439.472 -3.79676 0
-437.838 -3.79068 0
-436.203 -3.78419 0
-434.568 -3.78006 0
-432.932 -3.77431 0
-431.297 -3.77114 0
-429.662 -3.76725 0
-428.028 -3.76323 0
-426.393 -3.75774 0
-424.757 -3.75224 0
-423.121 -3.75054 0
-421.487 -3.74476 0
-419.851 -3.74172 0
-418.216 -3.73859 0
-416.58 -3.73421 0
-414.944 -3.73068 0
-413.31 -3.72967 0
-411.674 -3.72563 0
-410.038 -3.7241 0
-408.403 -3.72269 0
-406.766 -3.71795 0
-405.133 -3.71733 0
-403.499 -3.7131 0
-401.863 -3.71059 0
-400.229 -3.70809 0
-398.595 -3.70632 0
-396.96 -3.70271 0
-395.325 -3.69909 0
-393.687 -3.69663 0
-392.052 -3.693 0
-390.418 -3.69294 0
-388.783 -3.69155 0
-387.149 -3.69013 0
-385.514 -3.6878 0
-383.879 -3.68856 0
-382.244 -3.68845 0
-380.609 -3.6867 0
-378.975 -3.68566 0
-377.342 -3.68214 0
-375.706 -3.68493 0
-374.073 -3.6848 0
-372.436 -3.68324 0
-370.803 -3.68097 0
-369.169 -3.68124 0
-367.535 -3.68118 0
-365.9 -3.67919 0
-364.264 -3.6795 0
-362.631 -3.67865 0
-360.996 -3.67809 0
-359.362 -3.67757 0
-357.728 -3.6762 0
-356.094 -3.67265 0
-354.458 -3.67357 0
-352.825 -3.67365 0
-351.191 -3.67416 0
-349.556 -3.67401 0
-347.92 -3.67452 0
-346.287 -3.67544 0
-344.652 -3.67624 0
-343.02 -3.67358 0
-341.385 -3.67589 0
-339.751 -3.67453 0
-338.117 -3.67595 0
-336.483 -3.67708 0
-334.849 -3.6794 0
-333.214 -3.67688 0
-331.582 -3.67639 0
-329.946 -3.67745 0
-328.312 -3.67766 0
-326.679 -3.67882 0
-325.046 -3.67879 0
-323.413 -3.6773 0
-321.779 -3.6794 0
-320.145 -3.67691 0
-318.511 -3.6781 0
-316.877 -3.67639 0
-315.244 -3.67526 0
-313.608 -3.67664 0
-311.976 -3.67504 0
-310.342 -3.67704 0
-308.708 -3.6778 0
-307.074 -3.67784 0
-305.441 -3.67715 0
-303.81 -3.67463 0
-302.175 -3.67694 0
-300.542 -3.67619 0
-298.907 -3.67586 0
-297.274 -3.67339 0
-295.641 -3.6735 0
-294.008 -3.67419 0
-292.373 -3.67415 0
-290.739 -3.6751 0
-289.107 -3.67198 0
-287.473 -3.67283 0
-285.842 -3.67161 0
-284.207 -3.67194 0
-282.573 -3.67161 0
-280.939 -3.6705 0
-279.306 -3.66872 0
-277.672 -3.66647 0
-276.038 -3.66848 0
-274.404 -3.67046 0
-272.771 -3.66824 0
-271.137 -3.66738 0
-269.504 -3.66684 0
-267.871 -3.66706 0
-266.237 -3.66378 0
-264.604 -3.66412 0
-262.972 -3.66466 0
-261.338 -3.66097 0
-259.708 -3.66199 0
-258.073 -3.65838 0
-256.44 -3.65889 0
-254.807 -3.65608 0
-253.173 -3.65592 0
-251.54 -3.65222 0
-249.904 -3.65191 0
-248.27 -3.6513 0
-246.638 -3.65194 0
-245.003 -3.64891 0
-243.371 -3.64808 0
-241.734 -3.64519 0
-240.101 -3.64717 0
-238.47 -3.64558 0
-236.834 -3.64594 0
-235.2 -3.64198 0
-233.568 -3.64039 0
-231.936 -3.64246 0
-230.3 -3.64384 0
-228.667 -3.64128 0
-227.034 -3.63719 0
-225.4 -3.63695 0
-223.766 -3.63678 0
-222.133 -3.6347 0
-220.499 -3.63274 0
-218.865 -3.63273 0
-217.23 -3.62679 0
-215.595 -3.62809 0
-213.961 -3.62683 0
-212.329 -3.62317 0
-210.695 -3.62279 0
-209.062 -3.62088 0
-207.429 -3.61838 0
-205.795 -3.61703 0
-204.162 -3.61537 0
-202.53 -3.61452 0
-200.895 -3.61319 0
-199.263 -3.61067 0
-197.63 -3.61054 0
-195.995 -3.6113 0
-194.36 -3.60932 0
-192.728 -3.60822 0
-191.095 -3.60643 0
-189.461 -3.60497 0
-187.828 -3.60462 0
-186.195 -3.60504 0
-184.562 -3.60542 0
-182.928 -3.60197 0
-181.295 -3.5976 0
-179.662 -3.59807 0
-178.03 -3.5969 0
-176.397 -3.59344 0
-174.764 -3.59221 0
-173.128 -3.58995 0
-171.495 -3.58943 0
-169.862 -3.58701 0
-168.228 -3.5848 0
-166.593 -3.58536 0
-164.96 -3.58492 0
-163.328 -3.58306 0
-161.696 -3.58008 0
-160.06 -3.5819 0
-158.426 -3.57886 0
-156.792 -3.57844 0
-155.158 -3.5767 0
-153.524 -3.57355 0
-151.887 -3.57462 0
-150.253 -3.57697 0
-148.622 -3.57287 0
-146.989 -3.57301 0
-145.356 -3.5711 0
-143.724 -3.56873 0
-142.091 -3.57143 0
-140.457 -3.56775 0
-138.826 -3.56663 0
-137.189 -3.56871 0
-135.556 -3.56702 0
-133.923 -3.56644 0
-132.288 -3.56676 0
-130.654 -3.56444 0
-129.021 -3.5655 0
-127.386 -3.5611 0
-125.753 -3.56135 0
-124.122 -3.56378 0
-122.489 -3.55768 0
-120.855 -3.55817 0
-119.22 -3.55781 0
-117.589 -3.55726 0
-115.952 -3.55495 0
-114.32 -3.55615 0
-112.683 -3.55617 0
-111.051 -3.55475 0
-109.419 -3.55572 0
-107.787 -3.55403 0
-106.152 -3.55566 0
-104.52 -3.55518 0
-102.887 -3.55465 0
-101.256 -3.55469 0
-99.62 -3.55267 0
-97.9888 -3.55369 0
-96.3559 -3.55304 0
-94.7216 -3.55175 0
-93.0895 -3.55029 0
-91.4536 -3.55085 0
-89.8211 -3.54864 0
-88.1895 -3.54989 0
-86.5567 -3.5481 0
-84.9211 -3.55061 0
-83.2875 -3.5498 0
-81.6562 -3.54719 0
-80.0219 -3.54981 0
-78.3908 -3.54766 0
-76.7565 -3.54888 0
-75.1242 -3.55007 0
-73.4906 -3.54874 0
-71.8546 -3.54836 0
-70.2211 -3.55129 0
-68.5884 -3.54977 0
-66.9542 -3.54737 0
-65.3222 -3.5499 0
-63.691 -3.54552 0
-62.0569 -3.54326 0
-60.4227 -3.54481 0
-58.7903 -3.54481 0
-57.1546 -3.54317 0
-55.5248 -3.54493 0
-53.8901 -3.54589 0
-52.2588 -3.54142 0
-50.6253 -3.54303 0
-48.9915 -3.5427 0
-47.3557 -3.54403 0
-45.7224 -3.54756 0
-44.0886 -3.54463 0
-42.4564 -3.54159 0
-40.8239 -3.53962 0
-39.192 -3.54165 0
-37.5593 -3.5425 0
-35.9265 -3.54303 0
-34.2943 -3.54134 0
-32.6635 -3.54214 0
-31.0305 -3.53819 0
-29.396 -3.5433 0
-27.7643 -3.54307 0
-26.1275 -3.54148 0
-24.4959 -3.53987 0
-22.8613 -3.54282 0
-21.2272 -3.5396 0
-19.5965 -3.54288 0
-17.9624 -3.53874 0
-16.3302 -3.54152 0
-14.6982 -3.53912 0
-13.0652 -3.54211 0
-11.4344 -3.53973 0
-9.7979 -3.54183 0
-8.16523 -3.54034 0
-6.53192 -3.5396 0
-4.89998 -3.5408 0
-3.26469 -3.53789 0
-1.6326 -3.54002 0
0 -3.54338 0
-1100.69 69.4566 0
-1100.69 62.2181 0
-1100.69 55.1909 0
-1100.64 48.4665 0
-1100.59 42.0702 0
-1100.59 35.9438 0
-1100.57 30.0326 0
-1100.49 24.3956 0
-1100.37 19.1113 0
-1100.22 14.2088 0
-1100.05 9.6899 0
-1099.87 5.54973 0
-1099.66 1.77904 0
-1099.42 -1.63559 0
-1099.15 -4.71174 0
-1098.84 -7.47086 0
-1098.49 -9.93534 0
-1098.09 -12.1286 0
-1097.65 -14.0724 0
-1097.17 -15.7883 0
-1096.63 -17.2958 0
-1096.05 -18.6132 0
-1095.43 -19.7563 0
-1094.76 -20.7402 0
-1094.05 -21.5789 0
-1093.29 -22.284 0
-1092.5 -22.8662 0
-1091.68 -23.3361 0
-1090.81 -23.7023 0
-1089.92 -23.9715 0
-1088.99 -24.1515 0
-1088.03 -24.2479 0
-1087.04 -24.2675 0
-1086.03 -24.2149 0
-1084.98 -24.095 0
-1083.91 -23.9128 0
-1082.8 -23.6718 0
-1081.68 -23.3773 0
-1080.52 -23.0329 0
-1079.34 -22.6419 0
-1078.14 -22.2081 0
-1076.91 -21.7356 0
-1075.65 -21.2277 0
-1074.37 -20.6877 0
-1073.07 -20.1189 0
-1071.74 -19.5242 0
-1070.39 -18.9076 0
-1069.02 -18.271 0
-1067.63 -17.618 0
-1066.21 -16.9515 0
-1064.78 -16.2741 0
-1063.32 -15.588 0
-1061.85 -14.8958 0
-1060.36 -14.1993 0
-1058.85 -13.5018 0
-1057.32 -12.8048 0
-1055.78 -12.1095 0
-1054.22 -11.4183 0
-1052.65 -10.7338 0
-1051.06 -10.0568 0
-1049.46 -9.38869 0
-1047.84 -8.73127 0
-1046.22 -8.08573 0
-1044.58 -7.45317 0
-1042.93 -6.8343 0
-1041.27 -6.23052 0
-1039.6 -5.64255 0
-1037.92 -5.07193 0
-1036.23 -4.51847 0
-1034.54 -3.9837 0
-1032.83 -3.46718 0
-1031.13 -2.96941 0
-1029.41 -2.49222 0
-1027.69 -2.03423 0
-1025.96 -1.59649 0
-1024.23 -1.18008 0
-1022.5 -0.784519 0
-1020.76 -0.410143 0
-1019.02 -0.0566613 0
-1017.27 0.276558 0
-1015.53 0.58805 0
-1013.78 0.879132 0
-1012.03 1.15053 0
-1010.27 1.40065 0
-1008.52 1.6298 0
-1006.77 1.83865 0
-1005.01 2.02822 0
-1003.26 2.19769 0
-1001.51 2.34888 0
-999.753 2.48023 0
-998.002 2.59374 0
-996.251 2.68838 0
-994.502 2.76671 0
-992.755 2.82725 0
-991.009 2.87056 0
-989.266 2.89799 0
-987.524 2.90971 0
-985.785 2.90594 0
-984.049 2.88784 0
-982.315 2.85565 0
-980.584 2.80948 0
-978.856 2.75027 0
-977.132 2.67879 0
-975.411 2.59579 0
-973.693 2.50187 0
-971.977 2.39672 0
-970.266 2.28177 0
-968.557 2.1573 0
-966.853 2.02408 0
-965.151 1.88209 0
-963.452 1.7316 0
-961.758 1.57472 0
-960.068 1.41102 0
-958.38 1.24198 0
-956.696 1.06599 0
-955.016 0.88542 0
-953.338 0.700719 0
-951.665 0.512073 0
-949.995 0.320031 0
-948.328 0.124178 0
-946.665 -0.0725915 0
-945.005 -0.273204 0
-943.348 -0.474207 0
-941.694 -0.67668 0
-940.043 -0.879938 0
-938.395 -1.08269 0
-936.749 -1.2855 0
-935.107 -1.48739 0
-933.467 -1.68937 0
-931.83 -1.88894 0
-930.196 -2.08711 0
-928.564 -2.28353 0
-926.935 -2.47756 0
-925.307 -2.66915 0
-923.682 -2.85726 0
-922.058 -3.04296 0
-920.437 -3.22421 0
-918.818 -3.4025 0
-917.201 -3.57646 0
-915.585 -3.74624 0
-913.97 -3.9119 0
-912.358 -4.07298 0
-910.746 -4.22939 0
-909.136 -4.38067 0
-907.528 -4.52705 0
-905.92 -4.66827 0
-904.314 -4.80518 0
-902.708 -4.93601 0
-901.104 -5.06172 0
-899.499 -5.18218 0
-897.897 -5.29677 0
-896.294 -5.40591 0
-894.691 -5.50882 0
-893.09 -5.60723 0
-891.489 -5.69843 0
-889.888 -5.78498 0
-888.288 -5.86523 0
-886.687 -5.94071 0
-885.087 -6.01011 0
-883.487 -6.07424 0
-881.887 -6.13228 0
-880.286 -6.18534 0
-878.686 -6.23203 0
-877.085 -6.27388 0
-875.484 -6.31036 0
-873.883 -6.34202 0
-872.281 -6.36802 0
-870.679 -6.38958 0
-869.077 -6.40627 0
-867.475 -6.41754 0
-865.871 -6.4239 0
-864.267 -6.42594 0
-862.662 -6.42422 0
-861.057 -6.41712 0
-859.452 -6.40594 0
-857.845 -6.39062 0
-856.238 -6.37051 0
-854.63 -6.34784 0
-853.021 -6.32198 0
-851.412 -6.29113 0
-849.801 -6.25747 0
-848.19 -6.22025 0
-846.578 -6.18099 0
-844.966 -6.13785 0
-843.352 -6.09151 0
-841.738 -6.043 0
-840.122 -5.99225 0
-838.506 -5.93758 0
-836.888 -5.88144 0
-835.27 -5.8226 0
-833.651 -5.76302 0
-832.032 -5.70092 0
-830.41 -5.63747 0
-828.789 -5.57247 0
-827.167 -5.50542 0
-825.544 -5.43682 0
-823.919 -5.36806 0
-822.294 -5.29845 0
-820.668 -5.22701 0
-819.041 -5.15538 0
-817.414 -5.08232 0
-815.786 -5.00904 0
-814.156 -4.9356 0
-812.526 -4.86167 0
-810.895 -4.78605 0
-809.264 -4.71312 0
-807.631 -4.6392 0
-805.999 -4.56587 0
-804.365 -4.49244 0
-802.731 -4.41937 0
-801.096 -4.34652 0
-799.46 -4.27488 0
-797.824 -4.2027 0
-796.187 -4.13177 0
-794.55 -4.06067 0
-792.912 -3.99127 0
-791.274 -3.92296 0
-789.634 -3.8547 0
-787.994 -3.78823 0
-786.354 -3.72236 0
-784.714 -3.65942 0
-783.073 -3.59583 0
-781.432 -3.53496 0
-779.79 -3.47395 0
-778.148 -3.41457 0
-776.506 -3.3561 0
-774.864 -3.30015 0
-773.22 -3.24619 0
-771.577 -3.19208 0
-769.934 -3.14098 0
-768.29 -3.09026 0
-766.645 -3.04138 0
-765.001 -2.99265 0
-763.357 -2.94798 0
-761.712 -2.90411 0
-760.068 -2.8623 0
-758.423 -2.8219 0
-756.778 -2.78316 0
-755.133 -2.74468 0
-753.488 -2.70977 0
-751.843 -2.67545 0
-750.198 -2.6426 0
-748.554 -2.61227 0
-746.909 -2.58298 0
-745.263 -2.555 0
-743.618 -2.52831 0
-741.974 -2.50257 0
-740.329 -2.47992 0
-738.683 -2.45872 0
-737.038 -2.43905 0
-735.393 -2.42123 0
-733.749 -2.40357 0
-732.104 -2.38886 0
-730.46 -2.37461 0
-728.816 -2.36103 0
-727.172 -2.35065 0
-725.529 -2.33986 0
-723.885 -2.33117 0
-722.242 -2.324 0
-720.598 -2.3181 0
-718.955 -2.31383 0
-717.312 -2.30982 0
-715.67 -2.30725 0
-714.028 -2.30574 0
-712.386 -2.30417 0
-710.743 -2.30666 0
-709.101 -2.30847 0
-707.46 -2.31089 0
-705.819 -2.31526 0
-704.178 -2.31937 0
-702.537 -2.32461 0
-700.896 -2.32983 0
-699.256 -2.33674 0
-697.615 -2.34459 0
-695.975 -2.35269 0
-694.335 -2.36227 0
-692.696 -2.37127 0
-691.057 -2.38126 0
-689.418 -2.39262 0
-687.779 -2.40324 0
-686.141 -2.41411 0
-684.503 -2.42653 0
-682.865 -2.43995 0
-681.227 -2.45446 0
-679.59 -2.46698 0
-677.953 -2.48089 0
-676.316 -2.49558 0
-674.68 -2.50979 0
-673.043 -2.52343 0
-671.407 -2.53756 0
-669.772 -2.55281 0
-668.137 -2.56822 0
-666.501 -2.58275 0
-664.865 -2.59753 0
-663.23 -2.61277 0
-661.596 -2.62911 0
-659.96 -2.64344 0
-658.326 -2.6586 0
-656.691 -2.67315 0
-655.057 -2.68824 0
-653.424 -2.70126 0
-651.79 -2.71586 0
-650.157 -2.7309 0
-648.523 -2.74383 0
-646.89 -2.75722 0
-645.256 -2.77168 0
-643.624 -2.78543 0
-641.991 -2.79851 0
-640.358 -2.81167 0
-638.725 -2.8241 0
-637.091 -2.83681 0
-635.458 -2.84914 0
-633.827 -2.86006 0
-632.195 -2.87076 0
-630.562 -2.88047 0
-628.931 -2.89065 0
-627.298 -2.89961 0
-625.666 -2.90917 0
-624.036 -2.91824 0
-622.404 -2.92706 0
-620.773 -2.93484 0
-619.141 -2.94194 0
-617.509 -2.95002 0
-615.878 -2.95577 0
-614.246 -2.96209 0
-612.615 -2.96717 0
-610.984 -2.97215 0
-609.352 -2.97592 0
-607.72 -2.98083 0
-606.09 -2.98454 0
-604.459 -2.98696 0
-602.827 -2.98949 0
-601.197 -2.99119 0
-599.566 -2.99324 0
-597.935 -2.99487 0
-596.304 -2.99583 0
-594.673 -2.99523 0
-593.04 -2.99538 0
-591.41 -2.99412 0
-589.778 -2.99246 0
-588.147 -2.99212 0
-586.517 -2.98961 0
-584.885 -2.98716 0
-583.253 -2.98395 0
-581.622 -2.9807 0
-579.991 -2.97678 0
-578.36 -2.97413 0
-576.727 -2.9689 0
-575.096 -2.96432 0
-573.464 -2.95901 0
-571.832 -2.95292 0
-570.2 -2.94835 0
-568.568 -2.94193 0
-566.936 -2.93527 0
-565.305 -2.92826 0
-563.673 -2.92035 0
-562.041 -2.91282 0
-560.407 -2.90533 0
-558.775 -2.89806 0
-557.143 -2.88969 0
-555.512 -2.88005 0
-553.879 -2.87081 0
-552.246 -2.86265 0
-550.614 -2.85391 0
-548.982 -2.84324 0
-547.348 -2.8329 0
-545.715 -2.82354 0
-544.082 -2.8142 0
-542.449 -2.80305 0
-540.816 -2.79225 0
-539.183 -2.78123 0
-537.549 -2.77039 0
-535.917 -2.75919 0
-534.283 -2.74817 0
-532.649 -2.73837 0
-531.015 -2.72643 0
-529.383 -2.71365 0
-527.75 -2.70183 0
-526.116 -2.69086 0
-524.482 -2.67765 0
-522.848 -2.66679 0
-521.215 -2.65439 0
-519.581 -2.64246 0
-517.947 -2.63053 0
-516.314 -2.61822 0
-514.679 -2.60696 0
-513.045 -2.59448 0
-511.409 -2.58403 0
-509.776 -2.57253 0
-508.141 -2.56064 0
-506.506 -2.54806 0
-504.873 -2.53628 0
-503.237 -2.52455 0
-501.602 -2.51111 0
-499.968 -2.49943 0
-498.333 -2.48985 0
-496.699 -2.47721 0
-495.064 -2.46616 0
-493.43 -2.45547 0
-491.794 -2.44393 0
-490.159 -2.43311 0
-488.525 -2.42134 0
-486.89 -2.41027 0
-485.254 -2.40023 0
-483.62 -2.3903 0
-481.986 -2.38011 0
-480.351 -2.36976 0
-478.715 -2.36163 0
-477.08 -2.35006 0
-475.445 -2.34124 0
-473.81 -2.3322 0
-472.176 -2.32351 0
-470.54 -2.31255 0
-468.906 -2.30433 0
-467.271 -2.29557 0
-465.633 -2.28464 0
-464 -2.27703 0
-462.364 -2.26922 0
-460.729 -2.26024 0
-459.094 -2.25208 0
-457.459 -2.24508 0
-455.823 -2.23774 0
-454.187 -2.23127 0
-452.552 -2.22487 0
-450.917 -2.2171 0
-449.281 -2.21001 0
-447.645 -2.20417 0
-446.009 -2.19688 0
-444.373 -2.1892 0
-442.739 -2.18356 0
-441.102 -2.1767 0
-439.468 -2.17223 0
-437.833 -2.16574 0
-436.198 -2.16 0
-434.562 -2.15612 0
-432.927 -2.15057 0
-431.292 -2.14675 0
-429.658 -2.143 0
-428.022 -2.13823 0
-426.388 -2.13395 0
-424.753 -2.12792 0
-423.117 -2.12501 0
-421.482 -2.12135 0
-419.848 -2.11679 0
-418.212 -2.11411 0
-416.577 -2.10952 0
-414.94 -2.10623 0
-413.305 -2.10416 0
-411.67 -2.10064 0
-410.034 -2.09898 0
-408.4 -2.09624 0
-406.765 -2.0942 0
-405.13 -2.09241 0
-403.495 -2.08933 0
-401.86 -2.08655 0
-400.225 -2.0834 0
-398.591 -2.08135 0
-396.955 -2.07845 0
-395.32 -2.07613 0
-393.686 -2.07226 0
-392.052 -2.0699 0
-390.418 -2.06807 0
-388.783 -2.06702 0
-387.148 -2.06639 0
-385.515 -2.06421 0
-383.88 -2.06392 0
-382.245 -2.06269 0
-380.609 -2.06294 0
-378.974 -2.06242 0
-377.342 -2.05987 0
-375.707 -2.06046 0
-374.071 -2.05977 0
-372.438 -2.06014 0
-370.804 -2.05741 0
-369.168 -2.05769 0
-367.534 -2.05568 0
-365.9 -2.05437 0
-364.266 -2.05567 0
-362.631 -2.05349 0
-360.997 -2.05442 0
-359.362 -2.05342 0
-357.728 -2.05314 0
-356.093 -2.04999 0
-354.459 -2.04966 0
-352.824 -2.05128 0
-351.189 -2.05019 0
-349.556 -2.05094 0
-347.921 -2.05169 0
-346.287 -2.05128 0
-344.652 -2.05228 0
-343.018 -2.05096 0
-341.384 -2.05259 0
-339.75 -2.05325 0
-338.116 -2.05393 0
-336.483 -2.05367 0
-334.848 -2.05314 0
-333.213 -2.05443 0
-331.581 -2.05376 0
-329.946 -2.05403 0
-328.314 -2.05419 0
-326.68 -2.05568 0
-325.045 -2.05625 0
-323.412 -2.05443 0
-321.778 -2.05401 0
-320.145 -2.0546 0
-318.511 -2.05474 0
-316.878 -2.05444 0
-315.243 -2.05146 0
-313.61 -2.05241 0
-311.975 -2.05257 0
-310.343 -2.05282 0
-308.71 -2.05174 0
-307.077 -2.05487 0
-305.443 -2.05405 0
-303.808 -2.05236 0
-302.175 -2.05329 0
-300.541 -2.05332 0
-298.907 -2.05196 0
-297.274 -2.05064 0
-295.64 -2.0501 0
-294.007 -2.05077 0
-292.373 -2.05038 0
-290.739 -2.05137 0
-289.106 -2.05061 0
-287.473 -2.04939 0
-285.839 -2.04944 0
-284.207 -2.04827 0
-282.573 -2.04888 0
-280.939 -2.04574 0
-279.305 -2.04601 0
-277.671 -2.04431 0
-276.038 -2.04498 0
-274.405 -2.047 0
-272.771 -2.04493 0
-271.138 -2.04436 0
-269.506 -2.04304 0
-267.872 -2.0422 0
-266.239 -2.04167 0
-264.606 -2.04061 0
-262.973 -2.04065 0
-261.338 -2.03893 0
-259.704 -2.03742 0
-258.073 -2.03655 0
-256.44 -2.03477 0
-254.804 -2.0335 0
-253.17 -2.03301 0
-251.537 -2.02923 0
-249.903 -2.02932 0
-248.271 -2.02909 0
-246.636 -2.02778 0
-245.003 -2.02547 0
-243.368 -2.02475 0
-241.735 -2.02321 0
-240.102 -2.02255 0
-238.467 -2.02271 0
-236.833 -2.02137 0
-235.199 -2.01957 0
-233.567 -2.01867 0
-231.933 -2.01891 0
-230.298 -2.01832 0
-228.666 -2.01739 0
-227.033 -2.01452 0
-225.4 -2.0147 0
-223.764 -2.01298 0
-222.131 -2.01138 0
-220.495 -2.01001 0
-218.862 -2.00905 0
-217.229 -2.00549 0
-215.597 -2.00366 0
-213.961 -2.00363 0
-212.328 -2.00232 0
-210.696 -1.99941 0
-209.061 -1.99788 0
-207.428 -1.99613 0
-205.793 -1.99592 0
-204.16 -1.99347 0
-202.528 -1.9916 0
-200.894 -1.99057 0
-199.261 -1.98965 0
-197.627 -1.98714 0
-195.994 -1.98679 0
-194.36 -1.9863 0
-192.726 -1.98541 0
-191.094 -1.98269 0
-189.459 -1.98126 0
-187.825 -1.98296 0
-186.194 -1.98376 0
-184.561 -1.98344 0
-182.928 -1.97882 0
-181.294 -1.97705 0
-179.659 -1.97403 0
-178.027 -1.97347 0
-176.394 -1.97112 0
-174.76 -1.9681 0
-173.127 -1.96753 0
-171.494 -1.96605 0
-169.858 -1.96493 0
-168.226 -1.96292 0
-166.594 -1.96229 0
-164.96 -1.96062 0
-163.327 -1.96068 0
-161.693 -1.95815 0
-160.059 -1.95709 0
-158.426 -1.95554 0
-156.79 -1.95361 0
-155.156 -1.95171 0
-153.522 -1.95182 0
-151.89 -1.95176 0
-150.256 -1.95321 0
-148.621 -1.95118 0
-146.989 -1.9498 0
-145.355 -1.94924 0
-143.723 -1.94853 0
-142.089 -1.94749 0
-140.455 -1.94482 0
-138.823 -1.9453 0
-137.189 -1.94414 0
-135.556 -1.94259 0
-133.921 -1.94316 0
-132.288 -1.94085 0
-130.655 -1.94321 0
-129.021 -1.9411 0
-127.388 -1.93814 0
-125.754 -1.93958 0
-124.12 -1.93856 0
-122.486 -1.93445 0
-120.855 -1.93592 0
-119.219 -1.93351 0
-117.585 -1.93385 0
-115.953 -1.93112 0
-114.318 -1.93159 0
-112.686 -1.93235 0
-111.052 -1.93182 0
-109.419 -1.93276 0
-107.786 -1.9328 0
-106.154 -1.9336 0
-104.521 -1.93214 0
-102.888 -1.93249 0
-101.254 -1.92991 0
-99.6219 -1.93017 0
-97.9892 -1.93207 0
-96.355 -1.93009 0
-94.7214 -1.92953 0
-93.0895 -1.92772 0
-91.4546 -1.92758 0
-89.8193 -1.92559 0
-88.1874 -1.92793 0
-86.5553 -1.92719 0
-84.9225 -1.92536 0
-83.2884 -1.92813 0
-81.6557 -1.92401 0
-80.0211 -1.92586 0
-78.3895 -1.92412 0
-76.7562 -1.92516 0
-75.122 -1.92719 0
-73.4892 -1.92636 0
-71.8573 -1.92573 0
-70.2227 -1.92416 0
-68.5873 -1.92505 0
-66.954 -1.92581 0
-65.3229 -1.92656 0
-63.6883 -1.92347 0
-62.0551 -1.92087 0
-60.4206 -1.92266 0
-58.7897 -1.92223 0
-57.1563 -1.92156 0
-55.5229 -1.92131 0
-53.8925 -1.92207 0
-52.2568 -1.91944 0
-50.6238 -1.91867 0
-48.9913 -1.92089 0
-47.3578 -1.92199 0
-45.7241 -1.9235 0
-44.0904 -1.9222 0
-42.4576 -1.9208 0
-40.8254 -1.9183 0
-39.1933 -1.91834 0
-37.5584 -1.92059 0
-35.9263 -1.92115 0
-34.2951 -1.92053 0
-32.6613 -1.91987 0
-31.0277 -1.91815 0
-29.3955 -1.92057 0
-27.7628 -1.92094 0
-26.1286 -1.92032 0
-24.4954 -1.91771 0
-22.8628 -1.9184 0
-21.2284 -1.91776 0
-19.5954 -1.91956 0
-17.9625 -1.91804 0
-16.3299 -1.91995 0
-14.6971 -1.91774 0
-13.0647 -1.91916 0
-11.4312 -1.91887 0
-9.79929 -1.91631 0
-8.16483 -1.91728 0
-6.53114 -1.91736 0
-4.89723 -1.91773 0
-3.26684 -1.91501 0
-1.63358 -1.91958 0
0 -1.92072 0
-1108.22 70.0144 0
-1107.82 62.5894 0
-1107.56 55.587 0
-1107.26 48.8735 0
-1106.96 42.4391 0
-1106.65 36.2773 0
-1106.34 30.3987 0
-1105.96 24.8151 0
-1105.52 19.5587 0
-1105.03 14.6659 0
-1104.51 10.1525 0
-1103.96 6.01825 0
-1103.4 2.2564 0
-1102.82 -1.14659 0
-1102.22 -4.20701 0
-1101.6 -6.946 0
-1100.97 -9.3866 0
-1100.3 -11.5519 0
-1099.62 -13.4648 0
-1098.9 -15.1484 0
-1098.16 -16.6223 0
-1097.39 -17.9055 0
-1096.59 -19.0148 0
-1095.76 -19.9654 0
-1094.9 -20.7711 0
-1094.02 -21.4446 0
-1093.1 -21.9966 0
-1092.16 -22.437 0
-1091.2 -22.7741 0
-1090.2 -23.0154 0
-1089.19 -23.168 0
-1088.15 -23.238 0
-1087.08 -23.2314 0
-1085.99 -23.1534 0
-1084.88 -23.0082 0
-1083.74 -22.8011 0
-1082.59 -22.5358 0
-1081.41 -22.2167 0
-1080.2 -21.8481 0
-1078.98 -21.4338 0
-1077.73 -20.9767 0
-1076.46 -20.4808 0
-1075.17 -19.9503 0
-1073.86 -19.3881 0
-1072.53 -18.7975 0
-1071.18 -18.1817 0
-1069.81 -17.5436 0
-1068.42 -16.8869 0
-1067.01 -16.2142 0
-1065.58 -15.5284 0
-1064.13 -14.8321 0
-1062.67 -14.1278 0
-1061.19 -13.4182 0
-1059.7 -12.7048 0
-1058.18 -11.991 0
-1056.66 -11.2781 0
-1055.12 -10.568 0
-1053.56 -9.8626 0
-1051.99 -9.16383 0
-1050.41 -8.47366 0
-1048.82 -7.79334 0
-1047.22 -7.12433 0
-1045.6 -6.46726 0
-1043.97 -5.82377 0
-1042.34 -5.19538 0
-1040.69 -4.58182 0
-1039.04 -3.98539 0
-1037.38 -3.40607 0
-1035.71 -2.8452 0
-1034.03 -2.30305 0
-1032.34 -1.78052 0
-1030.65 -1.27587 0
-1028.96 -0.792655 0
-1027.25 -0.330284 0
-1025.55 0.112159 0
-1023.84 0.532533 0
-1022.12 0.931754 0
-1020.4 1.30986 0
-1018.68 1.66608 0
-1016.96 2.00194 0
-1015.23 2.31561 0
-1013.5 2.6088 0
-1011.77 2.88127 0
-1010.04 3.13205 0
-1008.3 3.36253 0
-1006.57 3.5717 0
-1004.84 3.76162 0
-1003.1 3.93088 0
-1001.37 4.08079 0
-999.631 4.2117 0
-997.897 4.32476 0
-996.163 4.41872 0
-994.431 4.49472 0
-992.7 4.55379 0
-990.971 4.5958 0
-989.243 4.62107 0
-987.517 4.6308 0
-985.792 4.6247 0
-984.07 4.60439 0
-982.35 4.56895 0
-980.632 4.52079 0
-978.917 4.45859 0
-977.204 4.384 0