<?xml version="1.0"?>
<VTKFile type="StructuredGrid"  version="0.1" byte_order="LittleEndian" compressor="vtkZLibDataCompressor">
  <StructuredGrid WholeExtent="0 700 0 30 0 0">
    <Piece Extent="0 700 0 30 0 0">
      <PointData Vectors="Velocity">
        <DataArray type="Float32" Name="Velocity" NumberOfComponents="3" format="ascii">
-1088.85 59.9182 0
-1089.06 53.3022 0
-1089.33 46.8703 0
-1089.63 40.7449 0
-1089.91 34.9596 0
-1090.12 29.4366 0
-1090.34 24.1157 0
-1090.59 19.0772 0
-1090.86 14.4071 0
-1091.11 10.1261 0
-1091.32 6.22969 0
-1091.51 2.70718 0
-1091.65 -0.454116 0
-1091.74 -3.27257 0
-1091.77 -5.76806 0
-1091.73 -7.96423 0
-1091.63 -9.88447 0
-1091.44 -11.5532 0
-1091.19 -12.9931 0
-1090.85 -14.2245 0
-1090.45 -15.2682 0
-1089.98 -16.1413 0
-1089.44 -16.8613 0
-1088.84 -17.443 0
-1088.18 -17.8993 0
-1087.46 -18.2427 0
-1086.69 -18.4849 0
-1085.88 -18.6346 0
-1085.02 -18.7013 0
-1084.11 -18.6927 0
-1083.17 -18.6155 0
-1082.19 -18.4768 0
-1081.17 -18.2808 0
-1080.11 -18.034 0
-1079.02 -17.7404 0
-1077.9 -17.405 0
-1076.75 -17.0318 0
-1075.57 -16.6249 0
-1074.35 -16.1871 0
-1073.11 -15.7223 0
-1071.84 -15.2341 0
-1070.54 -14.7259 0
-1069.22 -14.2003 0
-1067.87 -13.6599 0
-1066.49 -13.1082 0
-1065.09 -12.5467 0
-1063.67 -11.9793 0
-1062.22 -11.4074 0
-1060.75 -10.8333 0
-1059.26 -10.2601 0
-1057.75 -9.68884 0
-1056.23 -9.12256 0
-1054.68 -8.56187 0
-1053.12 -8.00856 0
-1051.54 -7.46418 0
-1049.94 -6.93105 0
-1048.33 -6.40996 0
-1046.71 -5.90141 0
-1045.07 -5.40651 0
-1043.42 -4.92747 0
-1041.76 -4.464 0
-1040.09 -4.01725 0
-1038.41 -3.58748 0
-1036.72 -3.1759 0
-1035.03 -2.78308 0
-1033.32 -2.40901 0
-1031.61 -2.05463 0
-1029.9 -1.71962 0
-1028.17 -1.40415 0
-1026.45 -1.10828 0
-1024.71 -0.832173 0
-1022.98 -0.575978 0
-1021.24 -0.339838 0
-1019.5 -0.123195 0
-1017.76 0.0744417 0
-1016.01 0.25182 0
-1014.27 0.411368 0
-1012.52 0.551163 0
-1010.78 0.67317 0
-1009.04 0.77685 0
-1007.29 0.862704 0
-1005.55 0.932002 0
-1003.81 0.984993 0
-1002.07 1.02119 0
-1000.33 1.04165 0
-998.592 1.0468 0
-996.858 1.0374 0
-995.127 1.01442 0
-993.4 0.977146 0
-991.675 0.92696 0
-989.954 0.865289 0
-988.236 0.791476 0
-986.522 0.707184 0
-984.812 0.612788 0
-983.105 0.507483 0
-981.402 0.393652 0
-979.703 0.270452 0
-978.008 0.140089 0
-976.317 0.00186624 0
-974.63 -0.142463 0
-972.947 -0.293591 0
-971.269 -0.450656 0
-969.594 -0.612508 0
-967.924 -0.778476 0
-966.258 -0.948591 0
-964.595 -1.12235 0
-962.937 -1.29797 0
-961.283 -1.47607 0
-959.631 -1.65632 0
-957.985 -1.83725 0
-956.341 -2.01801 0
-954.702 -2.20102 0
-953.065 -2.3826 0
-951.433 -2.56463 0
-949.803 -2.74452 0
-948.177 -2.92419 0
-946.554 -3.10207 0
-944.933 -3.27772 0
-943.315 -3.45079 0
-941.699 -3.62116 0
-940.087 -3.78834 0
-938.478 -3.95286 0
-936.871 -4.11305 0
-935.265 -4.26995 0
-933.661 -4.42174 0
-932.059 -4.56966 0
-930.459 -4.71344 0
-928.861 -4.85276 0
-927.264 -4.98822 0
-925.669 -5.11752 0
-924.075 -5.24203 0
-922.482 -5.36178 0
-920.891 -5.47572 0
-919.3 -5.58587 0
-917.71 -5.68894 0
-916.121 -5.78764 0
-914.533 -5.88038 0
-912.945 -5.96666 0
-911.357 -6.04843 0
-909.769 -6.12523 0
-908.182 -6.19664 0
-906.594 -6.26167 0
-905.007 -6.32346 0
-903.42 -6.37859 0
-901.833 -6.42869 0
-900.245 -6.4726 0
-898.658 -6.51344 0
-897.069 -6.54813 0
-895.481 -6.57984 0
-893.892 -6.60557 0
-892.302 -6.62485 0
-890.712 -6.64308 0
-889.122 -6.6548 0
-887.531 -6.66351 0
-885.938 -6.66515 0
-884.344 -6.66415 0
-882.751 -6.66068 0
-881.155 -6.65284 0
-879.56 -6.64125 0
-877.964 -6.62648 0
-876.366 -6.60841 0
-874.767 -6.58677 0
-873.168 -6.56259 0
-871.567 -6.53571 0
-869.967 -6.50589 0
-868.363 -6.4731 0
-866.759 -6.43907 0
-865.155 -6.40186 0
-863.549 -6.36313 0
-861.943 -6.32189 0
-860.335 -6.2781 0
-858.725 -6.23521 0
-857.115 -6.18997 0
-855.505 -6.14252 0
-853.893 -6.09383 0
-852.28 -6.04439 0
-850.666 -5.99579 0
-849.052 -5.94387 0
-847.436 -5.8927 0
-845.819 -5.8408 0
-844.202 -5.78853 0
-842.583 -5.73555 0
-840.963 -5.68308 0
-839.343 -5.62891 0
-837.721 -5.57598 0
-836.1 -5.52385 0
-834.476 -5.47109 0
-832.853 -5.42057 0
-831.229 -5.3664 0
-829.604 -5.31552 0
-827.978 -5.26514 0
-826.351 -5.21622 0
-824.724 -5.16631 0
-823.096 -5.11823 0
-821.468 -5.07265 0
-819.839 -5.02671 0
-818.209 -4.98213 0
-816.578 -4.93924 0
-814.948 -4.89643 0
-813.318 -4.85424 0
-811.687 -4.81499 0
-810.055 -4.77586 0
-808.423 -4.73633 0
-806.791 -4.70055 0
-805.157 -4.66631 0
-803.524 -4.63428 0
-801.892 -4.60373 0
-800.26 -4.57228 0
-798.626 -4.5453 0
-796.992 -4.51838 0
-795.358 -4.4924 0
-793.724 -4.46876 0
-792.09 -4.44625 0
-790.456 -4.42537 0
-788.822 -4.4062 0
-787.188 -4.39004 0
-785.553 -4.373 0
-783.921 -4.35966 0
-782.286 -4.34568 0
-780.652 -4.33371 0
-779.018 -4.32392 0
-777.383 -4.31408 0
-775.75 -4.30653 0
-774.116 -4.3011 0
-772.482 -4.29611 0
-770.849 -4.29224 0
-769.216 -4.29062 0
-767.583 -4.2903 0
-765.95 -4.29054 0
-764.318 -4.29325 0
-762.686 -4.29478 0
-761.054 -4.29825 0
-759.422 -4.30232 0
-757.79 -4.30799 0
-756.158 -4.31646 0
-754.527 -4.32333 0
-752.896 -4.33165 0
-751.266 -4.34024 0
-749.635 -4.34984 0
-748.004 -4.36096 0
-746.375 -4.37423 0
-744.746 -4.38636 0
-743.117 -4.39969 0
-741.488 -4.41339 0
-739.86 -4.42935 0
-738.231 -4.44485 0
-736.603 -4.45939 0
-734.975 -4.47599 0
-733.347 -4.49417 0
-731.721 -4.51076 0
-730.093 -4.52804 0
-728.466 -4.54604 0
-726.84 -4.56366 0
-725.215 -4.58288 0
-723.591 -4.60136 0
-721.964 -4.6197 0
-720.339 -4.63755 0
-718.713 -4.65678 0
-717.089 -4.6746 0
-715.465 -4.69479 0
-713.841 -4.71358 0
-712.216 -4.73327 0
-710.592 -4.75109 0
-708.969 -4.76889 0
-707.344 -4.78962 0
-705.721 -4.80781 0
-704.1 -4.82461 0
-702.478 -4.84365 0
-700.856 -4.85909 0
-699.233 -4.87829 0
-697.61 -4.89681 0
-695.989 -4.91331 0
-694.367 -4.93187 0
-692.746 -4.94762 0
-691.125 -4.96317 0
-689.505 -4.98021 0
-687.885 -4.9956 0
-686.264 -5.01006 0
-684.643 -5.02346 0
-683.022 -5.04007 0
-681.401 -5.05339 0
-679.779 -5.06681 0
-678.159 -5.0815 0
-676.539 -5.09286 0
-674.92 -5.10705 0
-673.299 -5.11902 0
-671.679 -5.12847 0
-670.06 -5.13943 0
-668.439 -5.14883 0
-666.819 -5.15963 0
-665.2 -5.16964 0
-663.579 -5.18028 0
-661.96 -5.18918 0
-660.34 -5.19569 0
-658.722 -5.20232 0
-657.102 -5.20988 0
-655.481 -5.21823 0
-653.861 -5.22346 0
-652.24 -5.22918 0
-650.621 -5.23432 0
-649.002 -5.23986 0
-647.382 -5.24322 0
-645.763 -5.24673 0
-644.144 -5.25065 0
-642.524 -5.2515 0
-640.905 -5.25296 0
-639.285 -5.25629 0
-637.666 -5.25855 0
-636.046 -5.25968 0
-634.425 -5.26145 0
-632.805 -5.26121 0
-631.185 -5.26187 0
-629.566 -5.26049 0
-627.946 -5.25817 0
-626.325 -5.25716 0
-624.704 -5.25671 0
-623.083 -5.25496 0
-621.462 -5.2527 0
-619.841 -5.25025 0
-618.22 -5.24762 0
-616.602 -5.24451 0
-614.98 -5.2427 0
-613.359 -5.23782 0
-611.737 -5.23237 0
-610.117 -5.22997 0
-608.495 -5.22473 0
-606.874 -5.22029 0
-605.253 -5.21415 0
-603.63 -5.20967 0
-602.01 -5.20535 0
-600.386 -5.1987 0
-598.765 -5.19529 0
-597.142 -5.18891 0
-595.52 -5.18369 0
-593.899 -5.1776 0
-592.276 -5.17342 0
-590.654 -5.16545 0
-589.031 -5.15972 0
-587.409 -5.1522 0
-585.785 -5.1471 0
-584.162 -5.14029 0
-582.54 -5.13425 0
-580.916 -5.12725 0
-579.293 -5.12299 0
-577.67 -5.11557 0
-576.048 -5.11042 0
-574.422 -5.10279 0
-572.801 -5.0975 0
-571.18 -5.09071 0
-569.555 -5.08463 0
-567.932 -5.076 0
-566.308 -5.0715 0
-564.685 -5.06452 0
-563.063 -5.05942 0
-561.439 -5.05464 0
-559.813 -5.04859 0
-558.189 -5.04327 0
-556.567 -5.03702 0
-554.944 -5.03118 0
-553.319 -5.0261 0
-551.696 -5.02055 0
-550.07 -5.01532 0
-548.448 -5.00996 0
-546.823 -5.00414 0
-545.198 -4.99849 0
-543.575 -4.99394 0
-541.952 -4.98854 0
-540.328 -4.98315 0
-538.705 -4.97934 0
-537.081 -4.97674 0
-535.457 -4.97267 0
-533.833 -4.97037 0
-532.206 -4.96713 0
-530.58 -4.96521 0
-528.958 -4.9602 0
-527.334 -4.95634 0
-525.709 -4.9539 0
-524.086 -4.94687 0
-522.463 -4.94478 0
-520.839 -4.94212 0
-519.214 -4.94018 0
-517.59 -4.93754 0
-515.966 -4.9329 0
-514.341 -4.93136 0
-512.719 -4.92779 0
-511.096 -4.92598 0
-509.472 -4.92528 0
-507.848 -4.92216 0
-506.226 -4.91903 0
-504.601 -4.91876 0
-502.975 -4.91631 0
-501.352 -4.91717 0
-499.728 -4.91508 0
-498.104 -4.91212 0
-496.48 -4.91294 0
-494.855 -4.91072 0
-493.231 -4.90945 0
-491.608 -4.91006 0
-489.985 -4.90882 0
-488.36 -4.90949 0
-486.735 -4.90983 0
-485.113 -4.9076 0
-483.49 -4.90692 0
-481.866 -4.9055 0
-480.243 -4.90573 0
-478.62 -4.90367 0
-476.998 -4.90656 0
-475.372 -4.90558 0
-473.747 -4.90713 0
-472.124 -4.90612 0
-470.501 -4.90765 0
-468.877 -4.90695 0
-467.252 -4.91044 0
-465.63 -4.9085 0
-464.006 -4.90889 0
-462.383 -4.91128 0
-460.763 -4.91362 0
-459.139 -4.91097 0
-457.516 -4.90951 0
-455.893 -4.91231 0
-454.267 -4.91479 0
-452.643 -4.91449 0
-451.021 -4.91665 0
-449.397 -4.91693 0
-447.775 -4.91951 0
-446.152 -4.92201 0
-444.527 -4.92338 0
-442.905 -4.92379 0
-441.281 -4.92319 0
-439.659 -4.92579 0
-438.036 -4.92562 0
-436.414 -4.9285 0
-434.791 -4.92793 0
-433.169 -4.9299 0
-431.546 -4.93246 0
-429.924 -4.93302 0
-428.302 -4.93414 0
-426.68 -4.93541 0
-425.054 -4.93766 0
-423.429 -4.94007 0
-421.809 -4.94009 0
-420.185 -4.93781 0
-418.564 -4.94146 0
-416.94 -4.9392 0
-415.317 -4.94242 0
-413.694 -4.94269 0
-412.072 -4.94169 0
-410.452 -4.94229 0
-408.827 -4.9433 0
-407.205 -4.94368 0
-405.581 -4.94687 0
-403.959 -4.94714 0
-402.336 -4.94717 0
-400.713 -4.94851 0
-399.089 -4.95017 0
-397.466 -4.94814 0
-395.844 -4.94788 0
-394.223 -4.9529 0
-392.602 -4.95002 0
-390.979 -4.95178 0
-389.356 -4.9493 0
-387.732 -4.9508 0
-386.111 -4.95181 0
-384.489 -4.95084 0
-382.867 -4.95096 0
-381.243 -4.95016 0
-379.621 -4.94836 0
-377.999 -4.95025 0
-376.375 -4.94867 0
-374.753 -4.94957 0
-373.133 -4.94465 0
-371.511 -4.94581 0
-369.889 -4.94642 0
-368.262 -4.94472 0
-366.639 -4.94466 0
-365.015 -4.94766 0
-363.393 -4.94683 0
-361.769 -4.94378 0
-360.147 -4.94215 0
-358.525 -4.93875 0
-356.9 -4.94158 0
-355.279 -4.94017 0
-353.659 -4.93795 0
-352.036 -4.93751 0
-350.415 -4.93724 0
-348.794 -4.93723 0
-347.17 -4.93672 0
-345.546 -4.93844 0
-343.925 -4.93762 0
-342.304 -4.93396 0
-340.682 -4.93397 0
-339.059 -4.93086 0
-337.436 -4.93107 0
-335.814 -4.92833 0
-334.192 -4.92734 0
-332.574 -4.92615 0
-330.948 -4.92862 0
-329.325 -4.92686 0
-327.703 -4.92678 0
-326.081 -4.92577 0
-324.457 -4.92427 0
-322.835 -4.92169 0
-321.213 -4.92008 0
-319.591 -4.91928 0
-317.968 -4.91735 0
-316.344 -4.91665 0
-314.722 -4.91537 0
-313.101 -4.91592 0
-311.476 -4.91316 0
-309.853 -4.91013 0
-308.231 -4.91127 0
-306.61 -4.91125 0
-304.986 -4.90911 0
-303.364 -4.907 0
-301.742 -4.90481 0
-300.12 -4.90405 0
-298.496 -4.90102 0
-296.874 -4.90043 0
-295.252 -4.89936 0
-293.631 -4.89309 0
-292.007 -4.89245 0
-290.384 -4.89328 0
-288.761 -4.89039 0
-287.138 -4.88835 0
-285.517 -4.88798 0
-283.893 -4.88792 0
-282.271 -4.88523 0
-280.65 -4.88452 0
-279.027 -4.88114 0
-277.404 -4.88038 0
-275.781 -4.87692 0
-274.16 -4.87592 0
-272.536 -4.87487 0
-270.912 -4.87486 0
-269.291 -4.87409 0
-267.668 -4.8734 0
-266.045 -4.87277 0
-264.421 -4.87069 0
-262.798 -4.8704 0
-261.177 -4.86805 0
-259.553 -4.86563 0
-257.932 -4.86518 0
-256.306 -4.86379 0
-254.684 -4.8627 0
-253.061 -4.86013 0
-251.441 -4.85804 0
-249.819 -4.85833 0
-248.199 -4.85596 0
-246.576 -4.85193 0
-244.95 -4.85208 0
-243.328 -4.85113 0
-241.705 -4.85445 0
-240.083 -4.85228 0
-238.462 -4.85077 0
-236.841 -4.84748 0
-235.217 -4.84601 0
-233.594 -4.84674 0
-231.972 -4.84532 0
-230.348 -4.84559 0
-228.724 -4.84527 0
-227.102 -4.84281 0
-225.482 -4.84505 0
-223.859 -4.84534 0
-222.237 -4.84526 0
-220.614 -4.8424 0
-218.989 -4.8411 0
-217.366 -4.84179 0
-215.742 -4.83889 0
-214.122 -4.84039 0
-212.502 -4.84016 0
-210.88 -4.84085 0
-209.258 -4.84021 0
-207.634 -4.83839 0
-206.012 -4.83707 0
-204.389 -4.83334 0
-202.766 -4.83311 0
-201.146 -4.83167 0
-199.523 -4.83001 0
-197.896 -4.83064 0
-196.275 -4.83104 0
-194.654 -4.83212 0
-193.033 -4.83262 0
-191.408 -4.83009 0
-189.787 -4.82741 0
-188.166 -4.82578 0
-186.543 -4.82591 0
-184.92 -4.82339 0
-183.299 -4.82663 0
-181.678 -4.82655 0
-180.055 -4.82489 0
-178.432 -4.82622 0
-176.81 -4.8246 0
-175.189 -4.82502 0
-173.565 -4.8231 0
-171.943 -4.82246 0
-170.32 -4.82187 0
-168.697 -4.81812 0
-167.074 -4.81887 0
-165.451 -4.81833 0
-163.831 -4.82114 0
-162.207 -4.82126 0
-160.582 -4.81937 0
-158.96 -4.81802 0
-157.339 -4.81759 0
-155.716 -4.81472 0
-154.094 -4.81764 0
-152.471 -4.81567 0
-150.85 -4.81604 0
-149.229 -4.81752 0
-147.607 -4.81641 0
-145.985 -4.81637 0
-144.362 -4.81791 0
-142.741 -4.81721 0
-141.119 -4.81514 0
-139.497 -4.81444 0
-137.874 -4.81733 0
-136.25 -4.81762 0
-134.63 -4.8164 0
-133.008 -4.81586 0
-131.384 -4.81454 0
-129.764 -4.81636 0
-128.14 -4.814 0
-126.519 -4.81467 0
-124.896 -4.8146 0
-123.273 -4.81334 0
-121.65 -4.81458 0
-120.029 -4.8154 0
-118.406 -4.8142 0
-116.786 -4.81287 0
-115.163 -4.81397 0
-113.541 -4.81297 0
-111.917 -4.81096 0
-110.297 -4.81376 0
-108.676 -4.81379 0
-107.051 -4.81461 0
-105.429 -4.81895 0
-103.807 -4.8145 0
-102.188 -4.81574 0
-100.563 -4.81537 0
-98.9394 -4.81661 0
-97.3194 -4.81609 0
-95.6984 -4.81708 0
-94.0744 -4.817 0
-92.452 -4.81577 0
-90.83 -4.81541 0
-89.2077 -4.81858 0
-87.584 -4.81598 0
-85.9643 -4.81607 0
-84.3433 -4.81375 0
-82.7217 -4.81476 0
-81.0982 -4.81594 0
-79.4759 -4.81423 0
-77.852 -4.81398 0
-76.2297 -4.81523 0
-74.6081 -4.81449 0
-72.9858 -4.81209 0
-71.3625 -4.81271 0
-69.7419 -4.81482 0
-68.1186 -4.81455 0
-66.4978 -4.8144 0
-64.8775 -4.81554 0
-63.2574 -4.81591 0
-61.6348 -4.81485 0
-60.0105 -4.81439 0
-58.3892 -4.81508 0
-56.7681 -4.81589 0
-55.1458 -4.81533 0
-53.5234 -4.81578 0
-51.9012 -4.81598 0
-50.2804 -4.81427 0
-48.6592 -4.81441 0
-47.0382 -4.81275 0
-45.4152 -4.81462 0
-43.7926 -4.81275 0
-42.172 -4.81459 0
-40.5478 -4.81421 0
-38.9261 -4.8131 0
-37.3062 -4.81317 0
-35.6855 -4.81463 0
-34.0638 -4.81417 0
-32.4383 -4.8129 0
-30.8181 -4.81264 0
-29.1951 -4.81197 0
-27.5724 -4.81364 0
-25.9505 -4.8124 0
-24.3263 -4.81329 0
-22.7059 -4.8138 0
-21.0864 -4.81473 0
-19.463 -4.8154 0
-17.8397 -4.8143 0
-16.2203 -4.81481 0
-14.5996 -4.81322 0
-12.9775 -4.81465 0
-11.3529 -4.81307 0
-9.73082 -4.81498 0
-8.10873 -4.81463 0
-6.48598 -4.81424 0
-4.86532 -4.81205 0
-3.24365 -4.80876 0
-1.61986 -4.81174 0
0 -4.80934 0
-1095.47 60.1646 0
-1095.52 53.491 0
-1095.55 47.0343 0
-1095.54 40.8926 0
-1095.52 35.0939 0
-1095.55 29.5627 0
-1095.56 24.2366 0
-1095.5 19.1927 0
-1095.38 14.5175 0
-1095.25 10.2352 0
-1095.09 6.34265 0
-1094.9 2.83219 0
-1094.69 -0.308675 0
-1094.44 -3.09699 0
-1094.16 -5.55353 0
-1093.83 -7.70368 0
-1093.45 -9.5721 0
-1093.02 -11.1857 0
-1092.54 -12.5681 0
-1092.01 -13.7424 0
-1091.42 -14.7289 0
-1090.79 -15.547 0
-1090.1 -16.2135 0
-1089.36 -16.7438 0
-1088.58 -17.1518 0
-1087.76 -17.4496 0
-1086.9 -17.6481 0
-1085.99 -17.7567 0
-1085.05 -17.7843 0
-1084.07 -17.7386 0
-1083.06 -17.6259 0
-1082.02 -17.4531 0
-1080.95 -17.2246 0
-1079.85 -16.9462 0
-1078.71 -16.6221 0
-1077.55 -16.2574 0
-1076.36 -15.8552 0
-1075.15 -15.42 0
-1073.91 -14.9547 0
-1072.64 -14.4634 0
-1071.35 -13.9492 0
-1070.03 -13.4156 0
-1068.69 -12.8653 0
-1067.33 -12.3011 0
-1065.94 -11.7255 0
-1064.53 -11.1418 0
-1063.11 -10.5527 0
-1061.66 -9.96018 0
-1060.19 -9.36628 0
-1058.7 -8.77373 0
-1057.2 -8.18417 0
-1055.67 -7.60027 0
-1054.13 -7.02304 0
-1052.58 -6.45377 0
-1051.01 -5.89447 0
-1049.42 -5.34738 0
-1047.83 -4.81264 0
-1046.22 -4.29119 0
-1044.6 -3.78535 0
-1042.96 -3.29509 0
-1041.32 -2.8213 0
-1039.67 -2.36491 0
-1038 -1.92693 0
-1036.33 -1.50732 0
-1034.65 -1.10691 0
-1032.97 -0.726316 0
-1031.28 -0.36565 0
-1029.58 -0.0253333 0
-1027.88 0.294929 0
-1026.17 0.594953 0
-1024.46 0.87463 0
-1022.74 1.13375 0
-1021.02 1.37296 0
-1019.3 1.59184 0
-1017.58 1.79059 0
-1015.85 1.9699 0
-1014.13 2.12922 0
-1012.4 2.26983 0
-1010.67 2.39133 0
-1008.94 2.49488 0
-1007.22 2.57993 0
-1005.49 2.64853 0
-1003.76 2.69972 0
-1002.04 2.73425 0
-1000.32 2.75288 0
-998.596 2.75576 0
-996.876 2.74451 0
-995.159 2.71842 0
-993.445 2.67841 0
-991.732 2.62592 0
-990.023 2.56071 0
-988.316 2.48394 0
-986.613 2.39564 0
-984.912 2.29814 0
-983.214 2.18906 0
-981.52 2.07156 0
-979.829 1.94548 0
-978.142 1.81107 0
-976.457 1.66915 0
-974.777 1.52047 0
-973.1 1.36597 0
-971.427 1.2052 0
-969.757 1.03952 0
-968.091 0.869943 0
-966.428 0.696527 0
-964.769 0.519397 0
-963.113 0.339162 0
-961.459 0.157639 0
-959.811 -0.0254164 0
-958.164 -0.210102 0
-956.522 -0.394675 0
-954.882 -0.580278 0
-953.245 -0.766007 0
-951.612 -0.950252 0
-949.981 -1.13355 0
-948.353 -1.31584 0
-946.728 -1.49627 0
-945.105 -1.67466 0
-943.485 -1.84982 0
-941.867 -2.02312 0
-940.251 -2.19307 0
-938.638 -2.35864 0
-937.027 -2.5216 0
-935.417 -2.6794 0
-933.809 -2.83424 0
-932.203 -2.98339 0
-930.599 -3.12874 0
-928.996 -3.26981 0
-927.394 -3.40676 0
-925.794 -3.53747 0
-924.196 -3.66299 0
-922.598 -3.78359 0
-921.001 -3.89886 0
-919.405 -4.00859 0
-917.81 -4.1132 0
-916.215 -4.2122 0
-914.621 -4.30552 0
-913.028 -4.39308 0
-911.435 -4.47509 0
-909.842 -4.55133 0
-908.249 -4.62297 0
-906.657 -4.68881 0
-905.064 -4.7497 0
-903.472 -4.8054 0
-901.88 -4.85457 0
-900.287 -4.89981 0
-898.694 -4.93966 0
-897.102 -4.97385 0
-895.508 -5.0047 0
-893.915 -5.03002 0
-892.321 -5.05068 0
-890.726 -5.06611 0
-889.131 -5.07786 0
-887.535 -5.08545 0
-885.939 -5.08746 0
-884.342 -5.08534 0
-882.745 -5.08073 0
-881.146 -5.07225 0
-879.547 -5.06007 0
-877.947 -5.04464 0
-876.346 -5.02487 0
-874.745 -5.00233 0
-873.142 -4.97779 0
-871.539 -4.94991 0
-869.935 -4.91888 0
-868.33 -4.8848 0
-866.724 -4.84993 0
-865.117 -4.81255 0
-863.51 -4.77249 0
-861.901 -4.7301 0
-860.292 -4.68613 0
-858.682 -4.64139 0
-857.07 -4.59506 0
-855.458 -4.54775 0
-853.845 -4.49794 0
-852.231 -4.44684 0
-850.616 -4.39675 0
-849 -4.34502 0
-847.384 -4.29259 0
-845.768 -4.23951 0
-844.149 -4.18663 0
-842.53 -4.13277 0
-840.91 -4.07951 0
-839.29 -4.02534 0
-837.67 -3.97144 0
-836.048 -3.91788 0
-834.425 -3.86494 0
-832.802 -3.81302 0
-831.178 -3.75938 0
-829.554 -3.70637 0
-827.928 -3.65574 0
-826.302 -3.60642 0
-824.676 -3.5563 0
-823.049 -3.50812 0
-821.421 -3.46126 0
-819.794 -3.41474 0
-818.165 -3.36958 0
-816.537 -3.32615 0
-814.908 -3.28313 0
-813.278 -3.24056 0
-811.648 -3.20025 0
-810.017 -3.16127 0
-808.386 -3.12183 0
-806.755 -3.08654 0
-805.124 -3.05102 0
-803.493 -3.01885 0
-801.862 -2.98779 0
-800.231 -2.95829 0
-798.598 -2.92802 0
-796.966 -2.90163 0
-795.334 -2.87524 0
-793.701 -2.85202 0
-792.069 -2.82964 0
-790.437 -2.80833 0
-788.804 -2.79046 0
-787.171 -2.77283 0
-785.538 -2.75692 0
-783.906 -2.74255 0
-782.273 -2.72872 0
-780.641 -2.71686 0
-779.008 -2.70694 0
-777.375 -2.69776 0
-775.744 -2.6901 0
-774.111 -2.68431 0
-772.479 -2.67964 0
-770.846 -2.67619 0
-769.214 -2.67495 0
-767.582 -2.67433 0
-765.951 -2.67535 0
-764.32 -2.67725 0
-762.688 -2.67985 0
-761.058 -2.68443 0
-759.427 -2.68807 0
-757.797 -2.69432 0
-756.166 -2.70163 0
-754.535 -2.70993 0
-752.904 -2.71796 0
-751.275 -2.72749 0
-749.645 -2.7375 0
-748.016 -2.74813 0
-746.387 -2.76189 0
-744.758 -2.77426 0
-743.13 -2.78748 0
-741.503 -2.80182 0
-739.875 -2.81803 0
-738.247 -2.83247 0
-736.619 -2.84946 0
-734.992 -2.86519 0
-733.364 -2.88385 0
-731.737 -2.90156 0
-730.111 -2.91843 0
-728.485 -2.9371 0
-726.859 -2.95386 0
-725.234 -2.97404 0
-723.608 -2.99256 0
-721.983 -3.01005 0
-720.358 -3.02979 0
-718.732 -3.04843 0
-717.107 -3.06832 0
-715.484 -3.08712 0
-713.858 -3.1066 0
-712.235 -3.12548 0
-710.612 -3.14426 0
-708.988 -3.16286 0
-707.363 -3.18216 0
-705.739 -3.20147 0
-704.117 -3.21939 0
-702.495 -3.23775 0
-700.873 -3.2542 0
-699.251 -3.27266 0
-697.628 -3.29148 0
-696.006 -3.30794 0
-694.384 -3.3271 0
-692.762 -3.34256 0
-691.141 -3.35997 0
-689.52 -3.3759 0
-687.898 -3.39102 0
-686.278 -3.40653 0
-684.657 -3.42026 0
-683.034 -3.43522 0
-681.413 -3.44975 0
-679.794 -3.46404 0
-678.173 -3.47739 0
-676.552 -3.48933 0
-674.931 -3.50335 0
-673.31 -3.51461 0
-671.69 -3.52483 0
-670.069 -3.5359 0
-668.449 -3.54683 0
-666.829 -3.5568 0
-665.209 -3.56699 0
-663.589 -3.57688 0
-661.969 -3.58424 0
-660.348 -3.59273 0
-658.729 -3.5998 0
-657.108 -3.60638 0
-655.487 -3.61361 0
-653.866 -3.61982 0
-652.246 -3.62559 0
-650.626 -3.63161 0
-649.006 -3.63582 0
-647.386 -3.63994 0
-645.766 -3.64389 0
-644.147 -3.64674 0
-642.527 -3.64831 0
-640.908 -3.65032 0
-639.288 -3.65298 0
-637.668 -3.65483 0
-636.047 -3.65553 0
-634.426 -3.6579 0
-632.805 -3.65759 0
-631.185 -3.65783 0
-629.565 -3.65707 0
-627.944 -3.65527 0
-626.323 -3.65338 0
-624.702 -3.65206 0
-623.082 -3.65024 0
-621.46 -3.649 0
-619.839 -3.64601 0
-618.219 -3.64461 0
-616.598 -3.63993 0
-614.976 -3.63709 0
-613.353 -3.63295 0
-611.733 -3.62985 0
-610.111 -3.62453 0
-608.49 -3.62023 0
-606.869 -3.61501 0
-605.248 -3.61005 0
-603.626 -3.6053 0
-602.003 -3.60024 0
-600.383 -3.59458 0
-598.761 -3.58972 0
-597.138 -3.58393 0
-595.514 -3.57814 0
-593.893 -3.57136 0
-592.269 -3.56648 0
-590.647 -3.56116 0
-589.025 -3.55386 0
-587.402 -3.54706 0
-585.779 -3.54054 0
-584.156 -3.53434 0
-582.534 -3.52819 0
-580.911 -3.52103 0
-579.287 -3.51537 0
-577.664 -3.50858 0
-576.041 -3.50362 0
-574.418 -3.49575 0
-572.796 -3.49146 0
-571.172 -3.48409 0
-569.548 -3.47838 0
-567.925 -3.47029 0
-566.303 -3.46535 0
-564.679 -3.45848 0
-563.056 -3.45294 0
-561.434 -3.44719 0
-559.809 -3.44142 0
-558.184 -3.43606 0
-556.562 -3.43064 0
-554.937 -3.42383 0
-553.314 -3.41911 0
-551.69 -3.41358 0
-550.066 -3.40825 0
-548.442 -3.40251 0
-546.818 -3.39665 0
-545.194 -3.39148 0
-543.57 -3.38634 0
-541.947 -3.38107 0
-540.324 -3.37682 0
-538.699 -3.37296 0
-537.075 -3.37008 0
-535.452 -3.3659 0
-533.828 -3.36311 0
-532.203 -3.3587 0
-530.578 -3.35538 0
-528.954 -3.35277 0
-527.33 -3.35024 0
-525.707 -3.34607 0
-524.084 -3.34125 0
-522.46 -3.33746 0
-520.835 -3.33342 0
-519.211 -3.33223 0
-517.588 -3.32918 0
-515.964 -3.32554 0
-514.34 -3.32383 0
-512.716 -3.32125 0
-511.093 -3.31904 0
-509.469 -3.31783 0
-507.846 -3.31621 0
-506.221 -3.31253 0
-504.598 -3.31049 0
-502.974 -3.30945 0
-501.35 -3.30968 0
-499.726 -3.30735 0
-498.101 -3.30423 0
-496.477 -3.30463 0
-494.855 -3.30402 0
-493.233 -3.30238 0
-491.608 -3.30098 0
-489.982 -3.30179 0
-488.358 -3.30073 0
-486.735 -3.30195 0
-485.112 -3.3004 0
-483.489 -3.3001 0
-481.865 -3.29962 0
-480.241 -3.29844 0
-478.619 -3.29872 0
-476.997 -3.29835 0
-475.374 -3.29825 0
-473.748 -3.29901 0
-472.125 -3.30024 0
-470.501 -3.29999 0
-468.876 -3.30086 0
-467.254 -3.30239 0
-465.631 -3.30407 0
-464.009 -3.30264 0
-462.385 -3.30548 0
-460.762 -3.30658 0
-459.137 -3.3047 0
-457.515 -3.30289 0
-455.892 -3.30519 0
-454.268 -3.30712 0
-452.645 -3.30893 0
-451.022 -3.30947 0
-449.401 -3.31093 0
-447.777 -3.31373 0
-446.154 -3.31464 0
-444.531 -3.31541 0
-442.906 -3.31746 0
-441.283 -3.31779 0
-439.66 -3.31896 0
-438.039 -3.32086 0
-436.415 -3.3219 0
-434.791 -3.32315 0
-433.17 -3.32418 0
-431.547 -3.32611 0
-429.924 -3.3272 0
-428.3 -3.32858 0
-426.677 -3.32835 0
-425.054 -3.32978 0
-423.431 -3.33395 0
-421.808 -3.33486 0
-420.187 -3.332 0
-418.563 -3.3339 0
-416.941 -3.33529 0
-415.318 -3.33606 0
-413.695 -3.33673 0
-412.073 -3.33696 0
-410.45 -3.33596 0
-408.827 -3.33771 0
-407.205 -3.33944 0
-405.584 -3.34028 0
-403.961 -3.34134 0
-402.339 -3.34102 0
-400.714 -3.34273 0
-399.091 -3.34307 0
-397.468 -3.34137 0
-395.847 -3.34354 0
-394.224 -3.34505 0
-392.6 -3.34515 0
-390.978 -3.34574 0
-389.354 -3.34211 0
-387.733 -3.34559 0
-386.11 -3.34493 0
-384.486 -3.34463 0
-382.864 -3.34383 0
-381.241 -3.3452 0
-379.619 -3.3434 0
-377.996 -3.3438 0
-376.374 -3.34151 0
-374.752 -3.34351 0
-373.13 -3.3409 0
-371.507 -3.33995 0
-369.885 -3.33939 0
-368.262 -3.33753 0
-366.639 -3.34013 0
-365.015 -3.33962 0
-363.392 -3.33949 0
-361.769 -3.33722 0
-360.146 -3.33581 0
-358.524 -3.33434 0
-356.901 -3.33504 0
-355.277 -3.33498 0
-353.656 -3.3324 0
-352.034 -3.33274 0
-350.413 -3.33371 0
-348.792 -3.33234 0
-347.17 -3.33141 0
-345.548 -3.33286 0
-343.925 -3.33202 0
-342.303 -3.32932 0
-340.681 -3.32937 0
-339.059 -3.32676 0
-337.436 -3.32531 0
-335.815 -3.32352 0
-334.194 -3.32084 0
-332.57 -3.32137 0
-330.948 -3.32033 0
-329.324 -3.31939 0
-327.702 -3.32063 0
-326.079 -3.3193 0
-324.456 -3.31734 0
-322.833 -3.31641 0
-321.212 -3.3145 0
-319.588 -3.31162 0
-317.966 -3.31016 0
-316.344 -3.30988 0
-314.721 -3.30969 0
-313.097 -3.30858 0
-311.475 -3.30737 0
-309.853 -3.30505 0
-308.23 -3.30537 0
-306.608 -3.30371 0
-304.985 -3.30341 0
-303.363 -3.29991 0
-301.74 -3.29872 0
-300.117 -3.29588 0
-298.496 -3.29516 0
-296.873 -3.29413 0
-295.25 -3.2928 0
-293.629 -3.28788 0
-292.006 -3.28664 0
-290.383 -3.2864 0
-288.759 -3.28387 0
-287.137 -3.28259 0
-285.515 -3.28129 0
-283.892 -3.28067 0
-282.268 -3.2798 0
-280.647 -3.2777 0
-279.025 -3.27623 0
-277.402 -3.27465 0
-275.78 -3.27229 0
-274.157 -3.27055 0
-272.534 -3.26958 0
-270.913 -3.26831 0
-269.29 -3.2687 0
-267.666 -3.26784 0
-266.044 -3.26525 0
-264.421 -3.26367 0
-262.799 -3.26309 0
-261.175 -3.2599 0
-259.553 -3.26097 0
-257.93 -3.25934 0
-256.307 -3.25789 0
-254.684 -3.25506 0
-253.062 -3.25424 0
-251.441 -3.25162 0
-249.819 -3.25218 0
-248.196 -3.25121 0
-246.575 -3.24758 0
-244.953 -3.24631 0
-243.329 -3.24615 0
-241.705 -3.24799 0
-240.083 -3.24589 0
-238.459 -3.24458 0
-236.837 -3.24291 0
-235.215 -3.24221 0
-233.592 -3.2403 0
-231.971 -3.23983 0
-230.349 -3.24013 0
-228.726 -3.23868 0
-227.101 -3.23811 0
-225.48 -3.23863 0
-223.857 -3.23754 0
-222.235 -3.23864 0
-220.613 -3.23787 0
-218.989 -3.23535 0
-217.366 -3.23511 0
-215.744 -3.23497 0
-214.123 -3.23578 0
-212.501 -3.23521 0
-210.88 -3.23428 0
-209.256 -3.23428 0
-207.635 -3.23299 0
-206.01 -3.22947 0
-204.387 -3.2288 0
-202.765 -3.22813 0
-201.143 -3.22592 0
-199.52 -3.22345 0
-197.897 -3.2246 0
-196.275 -3.22529 0
-194.655 -3.22864 0
-193.031 -3.22446 0
-191.409 -3.22276 0
-189.786 -3.22135 0
-188.163 -3.21991 0
-186.542 -3.21939 0
-184.92 -3.21795 0
-183.296 -3.22031 0
-181.676 -3.21989 0
-180.054 -3.21943 0
-178.429 -3.21886 0
-176.807 -3.21842 0
-175.186 -3.21713 0
-173.564 -3.21756 0
-171.942 -3.21488 0
-170.32 -3.21471 0
-168.696 -3.21403 0
-167.075 -3.21303 0
-165.451 -3.2141 0
-163.829 -3.21464 0
-162.207 -3.21344 0
-160.584 -3.21312 0
-158.961 -3.21325 0
-157.337 -3.21057 0
-155.716 -3.21094 0
-154.094 -3.2114 0
-152.471 -3.21013 0
-150.849 -3.21283 0
-149.228 -3.21105 0
-147.606 -3.21248 0
-145.986 -3.21062 0
-144.364 -3.21032 0
-142.741 -3.2106 0
-141.118 -3.2091 0
-139.494 -3.20951 0
-137.874 -3.21147 0
-136.253 -3.21211 0
-134.629 -3.21106 0
-133.008 -3.21122 0
-131.386 -3.20951 0
-129.762 -3.20954 0
-128.139 -3.20919 0
-126.517 -3.20886 0
-124.895 -3.20872 0
-123.273 -3.20743 0
-121.65 -3.21011 0
-120.026 -3.20808 0
-118.404 -3.20757 0
-116.784 -3.20825 0
-115.163 -3.2081 0
-113.54 -3.20693 0
-111.919 -3.20677 0
-110.298 -3.20813 0
-108.676 -3.20906 0
-107.053 -3.20913 0
-105.432 -3.21155 0
-103.809 -3.21028 0
-102.186 -3.21056 0
-100.564 -3.20879 0
-98.9417 -3.2101 0
-97.3208 -3.21175 0
-95.6987 -3.21028 0
-94.0745 -3.21078 0
-92.4531 -3.21027 0
-90.8301 -3.21112 0
-89.2078 -3.21135 0
-87.5844 -3.21107 0
-85.9626 -3.21053 0
-84.3423 -3.20941 0
-82.7201 -3.21054 0
-81.0972 -3.20959 0
-79.4754 -3.20881 0
-77.853 -3.20802 0
-76.2307 -3.2082 0
-74.6072 -3.20865 0
-72.9856 -3.20723 0
-71.3645 -3.20825 0
-69.7423 -3.20931 0
-68.12 -3.20768 0
-66.4975 -3.20891 0
-64.876 -3.21055 0
-63.2546 -3.21081 0
-61.6325 -3.20939 0
-60.0109 -3.2096 0
-58.3901 -3.20918 0
-56.768 -3.21052 0
-55.1461 -3.21038 0
-53.523 -3.20955 0
-51.9013 -3.21029 0
-50.2788 -3.21011 0
-48.6597 -3.20859 0
-47.0368 -3.20724 0
-45.4151 -3.20834 0
-43.793 -3.20864 0
-42.1717 -3.2094 0
-40.5489 -3.2103 0
-38.9274 -3.20941 0
-37.3058 -3.20863 0
-35.6843 -3.20879 0
-34.0628 -3.20838 0
-32.4396 -3.20881 0
-30.8166 -3.20696 0
-29.1958 -3.20692 0
-27.5729 -3.20703 0
-25.951 -3.20798 0
-24.329 -3.20695 0
-22.7076 -3.2085 0
-21.0865 -3.2101 0
-19.4644 -3.20967 0
-17.8408 -3.20848 0
-16.2177 -3.21036 0
-14.5974 -3.20724 0
-12.9746 -3.20845 0
-11.3537 -3.2086 0
-9.7329 -3.20892 0
-8.10946 -3.20859 0
-6.48697 -3.20709 0
-4.86273 -3.2056 0
-3.24165 -3.20517 0
-1.62019 -3.20583 0
0 -3.20754 0
-1102.45 60.7853 0
-1102.08 53.9083 0
-1101.84 47.4746 0
-1101.57 41.3415 0
-1101.3 35.4908 0
-1101.03 29.9165 0
-1100.73 24.6308 0
-1100.37 19.6431 0
-1099.94 14.9907 0
-1099.45 10.7129 0
-1098.93 6.82218 0
-1098.39 3.31528 0
-1097.82 0.182034 0
-1097.24 -2.5937 0
-1096.63 -5.03314 0
-1096 -7.16036 0
-1095.35 -9.00134 0
-1094.67 -10.5829 0
-1093.96 -11.9306 0
-1093.22 -13.0679 0
-1092.45 -14.0164 0
-1091.64 -14.7965 0
-1090.8 -15.4256 0
-1089.93 -15.919 0
-1089.03 -16.291 0
-1088.09 -16.5542 0
-1087.13 -16.7194 0
-1086.13 -16.7958 0
-1085.11 -16.7924 0
-1084.06 -16.7167 0
-1082.98 -16.5751 0
-1081.88 -16.3739 0
-1080.75 -16.1185 0
-1079.6 -15.8132 0
-1078.42 -15.4632 0
-1077.22 -15.0729 0
-1076 -14.6457 0
-1074.75 -14.1857 0
-1073.48 -13.6968 0
-1072.19 -13.1818 0
-1070.87 -12.645 0
-1069.53 -12.0888 0
-1068.18 -11.5164 0
-1066.8 -10.9307 0
-1065.4 -10.3348 0
-1063.99 -9.73111 0
-1062.55 -9.12246 0
-1061.1 -8.51142 0
-1059.63 -7.89978 0
-1058.15 -7.28989 0
-1056.64 -6.68405 0
-1055.13 -6.084 0
-1053.59 -5.49147 0
-1052.05 -4.90804 0
-1050.49 -4.33515 0
-1048.91 -3.77501 0
-1047.33 -3.22794 0
-1045.73 -2.69538 0
-1044.12 -2.17825 0
-1042.5 -1.67784 0
-1040.88 -1.19504 0
-1039.24 -0.729976 0
-1037.59 -0.283443 0
-1035.94 0.143637 0
-1034.28 0.550799 0
-1032.61 0.937729 0
-1030.94 1.30436 0
-1029.26 1.64997 0
-1027.58 1.97483 0
-1025.89 2.27895 0
-1024.2 2.56224 0
-1022.5 2.82471 0
-1020.8 3.06681 0
-1019.1 3.28792 0
-1017.39 3.48855 0
-1015.69 3.66899 0
-1013.98 3.82931 0
-1012.27 3.97067 0
-1010.56 4.09278 0
-1008.85 4.19567 0
-1007.14 4.28087 0
-1005.43 4.34886 0
-1003.72 4.39915 0
-1002.01 4.43246 0
-1000.3 4.44956 0
-998.597 4.45104 0
-996.892 4.43755 0
-995.188 4.40946 0
-993.486 4.36764 0
-991.786 4.31279 0
-990.088 4.24533 0
-988.393 4.16541 0
-986.7 4.07533 0
-985.009 3.9741 0
-983.321 3.86236 0
-981.635 3.74219 0
-979.952 3.61256 0
-978.272 3.47519 0
-976.595 3.32967 0
-974.921 3.17787 0
-973.25 3.01999 0
-971.582 2.85657 0