<?xml version="1.0"?>
<VTKFile type="StructuredGrid"  version="0.1" byte_order="LittleEndian" compressor="vtkZLibDataCompressor">
  <StructuredGrid WholeExtent="0 700 0 30 0 0">
    <Piece Extent="0 700 0 30 0 0">
      <PointData Vectors="Velocity">
        <DataArray type="Float32" Name="Velocity" NumberOfComponents="3" format="ascii">
-1086.34 55.6218 0
-1086.57 49.2088 0
-1086.86 42.9828 0
-1087.18 37.0679 0
-1087.48 31.4988 0
-1087.7 26.1897 0
-1087.92 21.0798 0
-1088.19 16.2564 0
-1088.47 11.8086 0
-1088.72 7.75312 0
-1088.94 4.08249 0
-1089.12 0.786445 0
-1089.26 -2.15042 0
-1089.34 -4.74663 0
-1089.36 -7.02386 0
-1089.31 -9.00748 0
-1089.19 -10.722 0
-1088.99 -12.192 0
-1088.7 -13.4404 0
-1088.35 -14.4893 0
-1087.91 -15.3589 0
-1087.41 -16.0668 0
-1086.84 -16.63 0
-1086.21 -17.0642 0
-1085.51 -17.3821 0
-1084.76 -17.5961 0
-1083.96 -17.7171 0
-1083.11 -17.755 0
-1082.21 -17.7187 0
-1081.27 -17.6151 0
-1080.29 -17.4515 0
-1079.27 -17.2339 0
-1078.21 -16.968 0
-1077.12 -16.6584 0
-1076 -16.3106 0
-1074.84 -15.9282 0
-1073.65 -15.5151 0
-1072.43 -15.0744 0
-1071.19 -14.6109 0
-1069.91 -14.127 0
-1068.61 -13.6259 0
-1067.28 -13.1113 0
-1065.92 -12.5845 0
-1064.54 -12.0497 0
-1063.13 -11.5083 0
-1061.7 -10.9631 0
-1060.25 -10.4169 0
-1058.78 -9.87114 0
-1057.28 -9.32844 0
-1055.77 -8.79033 0
-1054.24 -8.25868 0
-1052.69 -7.73531 0
-1051.12 -7.22116 0
-1049.54 -6.71834 0
-1047.94 -6.22729 0
-1046.33 -5.75032 0
-1044.71 -5.28715 0
-1043.07 -4.83973 0
-1041.42 -4.40889 0
-1039.76 -3.99479 0
-1038.09 -3.59777 0
-1036.41 -3.21924 0
-1034.73 -2.85841 0
-1033.03 -2.51682 0
-1031.33 -2.19531 0
-1029.63 -1.89242 0
-1027.91 -1.60855 0
-1026.2 -1.34553 0
-1024.48 -1.10105 0
-1022.75 -0.876096 0
-1021.03 -0.671186 0
-1019.3 -0.484283 0
-1017.57 -0.31713 0
-1015.83 -0.167884 0
-1014.1 -0.0376394 0
-1012.37 0.0744815 0
-1010.63 0.169618 0
-1008.9 0.247767 0
-1007.17 0.308596 0
-1005.44 0.35341 0
-1003.71 0.382128 0
-1001.98 0.396384 0
-1000.26 0.396128 0
-998.535 0.38102 0
-996.816 0.353507 0
-995.099 0.312988 0
-993.385 0.259969 0
-991.674 0.194959 0
-989.968 0.119482 0
-988.264 0.0336961 0
-986.564 -0.0620705 0
-984.869 -0.166217 0
-983.177 -0.28015 0
-981.49 -0.40118 0
-979.805 -0.528792 0
-978.125 -0.662912 0
-976.449 -0.80294 0
-974.777 -0.948814 0
-973.109 -1.09962 0
-971.446 -1.25459 0
-969.786 -1.4121 0
-968.13 -1.57393 0
-966.479 -1.73755 0
-964.831 -1.90293 0
-963.187 -2.06973 0
-961.547 -2.23805 0
-959.91 -2.40691 0
-958.277 -2.57594 0
-956.647 -2.74386 0
-955.021 -2.91083 0
-953.397 -3.07682 0
-951.777 -3.24079 0
-950.16 -3.40331 0
-948.546 -3.56324 0
-946.934 -3.72061 0
-945.325 -3.87476 0
-943.719 -4.02675 0
-942.115 -4.17351 0
-940.513 -4.31775 0
-938.913 -4.45713 0
-937.315 -4.59265 0
-935.719 -4.72415 0
-934.124 -4.851 0
-932.531 -4.97289 0
-930.94 -5.09006 0
-929.35 -5.2026 0
-927.761 -5.30972 0
-926.174 -5.41224 0
-924.587 -5.50851 0
-923 -5.6003 0
-921.414 -5.68692 0
-919.829 -5.76837 0
-918.244 -5.84321 0
-916.66 -5.91319 0
-915.076 -5.97833 0
-913.492 -6.0384 0
-911.908 -6.09346 0
-910.324 -6.14349 0
-908.741 -6.1896 0
-907.157 -6.22914 0
-905.572 -6.26308 0
-903.988 -6.29194 0
-902.403 -6.31749 0
-900.818 -6.33902 0
-899.232 -6.35573 0
-897.645 -6.36712 0
-896.058 -6.37431 0
-894.47 -6.37706 0
-892.881 -6.37623 0
-891.292 -6.37227 0
-889.702 -6.36417 0
-888.11 -6.35281 0
-886.518 -6.33841 0
-884.924 -6.32071 0
-883.331 -6.29939 0
-881.735 -6.27518 0
-880.138 -6.24852 0
-878.541 -6.21974 0
-876.944 -6.18762 0
-875.345 -6.15268 0
-873.744 -6.11646 0
-872.143 -6.07931 0
-870.541 -6.03947 0
-868.937 -5.99663 0
-867.333 -5.95427 0
-865.728 -5.91067 0
-864.121 -5.86394 0
-862.513 -5.81814 0
-860.904 -5.77088 0
-859.296 -5.72188 0
-857.685 -5.67229 0
-856.072 -5.62205 0
-854.459 -5.57236 0
-852.846 -5.52276 0
-851.233 -5.47129 0
-849.618 -5.42156 0
-848.002 -5.37105 0
-846.384 -5.32071 0
-844.767 -5.27147 0
-843.148 -5.22078 0
-841.529 -5.17243 0
-839.909 -5.12326 0
-838.288 -5.07545 0
-836.667 -5.02841 0
-835.045 -4.98136 0
-833.422 -4.9366 0
-831.799 -4.89174 0
-830.176 -4.84842 0
-828.552 -4.8063 0
-826.927 -4.76509 0
-825.301 -4.72428 0
-823.675 -4.68784 0
-822.048 -4.64862 0
-820.423 -4.61299 0
-818.795 -4.57915 0
-817.168 -4.5455 0
-815.542 -4.51354 0
-813.913 -4.48349 0
-812.286 -4.45449 0
-810.656 -4.42696 0
-809.027 -4.40138 0
-807.4 -4.37717 0
-805.772 -4.35312 0
-804.143 -4.33072 0
-802.515 -4.31117 0
-800.886 -4.29253 0
-799.256 -4.27615 0
-797.627 -4.25938 0
-795.999 -4.24558 0
-794.371 -4.2335 0
-792.742 -4.22428 0
-791.113 -4.21409 0
-789.485 -4.20512 0
-787.856 -4.19817 0
-786.228 -4.19282 0
-784.601 -4.19 0
-782.974 -4.18645 0
-781.346 -4.1848 0
-779.719 -4.18388 0
-778.092 -4.18585 0
-776.464 -4.18711 0
-774.837 -4.19098 0
-773.211 -4.19399 0
-771.583 -4.19991 0
-769.957 -4.20544 0
-768.331 -4.21364 0
-766.706 -4.22202 0
-765.08 -4.22964 0
-763.455 -4.24056 0
-761.83 -4.25199 0
-760.206 -4.26368 0
-758.583 -4.27484 0
-756.958 -4.28718 0
-755.335 -4.29909 0
-753.712 -4.31409 0
-752.09 -4.32896 0
-750.467 -4.34372 0
-748.844 -4.3574 0
-747.222 -4.37297 0
-745.6 -4.3906 0
-743.98 -4.40693 0
-742.359 -4.42255 0
-740.737 -4.44031 0
-739.117 -4.45667 0
-737.496 -4.47311 0
-735.876 -4.49141 0
-734.255 -4.50984 0
-732.637 -4.52668 0
-731.017 -4.54487 0
-729.397 -4.56375 0
-727.78 -4.58146 0
-726.162 -4.5989 0
-724.544 -4.61594 0
-722.925 -4.63299 0
-721.308 -4.64997 0
-719.689 -4.66719 0
-718.072 -4.68465 0
-716.455 -4.70149 0
-714.837 -4.71636 0
-713.22 -4.73488 0
-711.604 -4.75167 0
-709.986 -4.7663 0
-708.37 -4.7818 0
-706.754 -4.79741 0
-705.137 -4.81065 0
-703.521 -4.82471 0
-701.905 -4.8385 0
-700.29 -4.85257 0
-698.674 -4.86676 0
-697.058 -4.87791 0
-695.443 -4.89206 0
-693.827 -4.90263 0
-692.211 -4.91401 0
-690.597 -4.92563 0
-688.982 -4.93527 0
-687.368 -4.94563 0
-685.754 -4.95491 0
-684.138 -4.96413 0
-682.523 -4.97306 0
-680.909 -4.98179 0
-679.294 -4.98648 0
-677.68 -4.99516 0
-676.066 -5.00186 0
-674.451 -5.00778 0
-672.837 -5.01312 0
-671.221 -5.01797 0
-669.605 -5.02391 0
-667.991 -5.02874 0
-666.376 -5.03406 0
-664.761 -5.03756 0
-663.147 -5.03983 0
-661.531 -5.043 0
-659.916 -5.04376 0
-658.302 -5.04723 0
-656.687 -5.04921 0
-655.072 -5.04996 0
-653.457 -5.05002 0
-651.84 -5.0513 0
-650.224 -5.04787 0
-648.609 -5.0515 0
-646.993 -5.0505 0
-645.378 -5.05137 0
-643.762 -5.04902 0
-642.147 -5.04739 0
-640.532 -5.04505 0
-638.915 -5.04238 0
-637.3 -5.03937 0
-635.685 -5.03666 0
-634.068 -5.0341 0
-632.453 -5.03266 0
-630.835 -5.02722 0
-629.22 -5.02583 0
-627.602 -5.02011 0
-625.985 -5.01532 0
-624.369 -5.01254 0
-622.753 -5.00724 0
-621.137 -5.00357 0
-619.52 -4.99881 0
-617.903 -4.99336 0
-616.284 -4.98925 0
-614.667 -4.98385 0
-613.05 -4.98006 0
-611.434 -4.97392 0
-609.816 -4.96769 0
-608.199 -4.96133 0
-606.581 -4.95642 0
-604.963 -4.9517 0
-603.346 -4.94844 0
-601.729 -4.94083 0
-600.11 -4.93522 0
-598.493 -4.92986 0
-596.873 -4.92237 0
-595.256 -4.91787 0
-593.638 -4.91459 0
-592.019 -4.90948 0
-590.401 -4.90407 0
-588.783 -4.89963 0
-587.165 -4.89185 0
-585.546 -4.88706 0
-583.928 -4.88267 0
-582.31 -4.87804 0
-580.692 -4.8726 0
-579.074 -4.86863 0
-577.455 -4.86311 0
-575.836 -4.85924 0
-574.217 -4.85412 0
-572.6 -4.84901 0
-570.981 -4.84436 0
-569.361 -4.84021 0
-567.742 -4.83607 0
-566.123 -4.83297 0
-564.504 -4.82808 0
-562.885 -4.82434 0
-561.266 -4.82123 0
-559.647 -4.81683 0
-558.027 -4.81499 0
-556.409 -4.81235 0
-554.789 -4.80856 0
-553.17 -4.8048 0
-551.55 -4.80149 0
-549.931 -4.79936 0
-548.314 -4.7976 0
-546.695 -4.79515 0
-545.076 -4.79444 0
-543.458 -4.79481 0
-541.838 -4.79079 0
-540.219 -4.78942 0
-538.6 -4.78708 0
-536.981 -4.78494 0
-535.362 -4.78514 0
-533.744 -4.78389 0
-532.125 -4.78313 0
-530.507 -4.78337 0
-528.887 -4.78082 0
-527.267 -4.78116 0
-525.649 -4.78005 0
-524.03 -4.78055 0
-522.409 -4.77929 0
-520.79 -4.77927 0
-519.171 -4.77814 0
-517.554 -4.77843 0
-515.934 -4.7764 0
-514.315 -4.77607 0
-512.698 -4.77591 0
-511.078 -4.7789 0
-509.458 -4.7783 0
-507.84 -4.77894 0
-506.222 -4.78135 0
-504.603 -4.7814 0
-502.984 -4.78123 0
-501.366 -4.78065 0
-499.747 -4.7804 0
-498.129 -4.78388 0
-496.512 -4.78302 0
-494.894 -4.78266 0
-493.276 -4.7874 0
-491.658 -4.78781 0
-490.038 -4.7875 0
-488.418 -4.78936 0
-486.802 -4.79032 0
-485.185 -4.79159 0
-483.567 -4.79082 0
-481.948 -4.79291 0
-480.332 -4.79741 0
-478.712 -4.79572 0
-477.093 -4.79878 0
-475.474 -4.79952 0
-473.857 -4.80162 0
-472.24 -4.80322 0
-470.623 -4.80358 0
-469.007 -4.80345 0
-467.387 -4.80747 0
-465.769 -4.80748 0
-464.153 -4.80933 0
-462.535 -4.81142 0
-460.917 -4.80967 0
-459.298 -4.81228 0
-457.681 -4.81546 0
-456.063 -4.81724 0
-454.445 -4.81805 0
-452.828 -4.81935 0
-451.21 -4.82121 0
-449.591 -4.82397 0
-447.973 -4.82425 0
-446.357 -4.82635 0
-444.738 -4.8284 0
-443.119 -4.82836 0
-441.504 -4.83061 0
-439.887 -4.83085 0
-438.267 -4.83337 0
-436.651 -4.83223 0
-435.034 -4.83469 0
-433.418 -4.83656 0
-431.801 -4.83724 0
-430.184 -4.83946 0
-428.566 -4.83879 0
-426.949 -4.83907 0
-425.33 -4.84191 0
-423.713 -4.84146 0
-422.095 -4.84429 0
-420.478 -4.84357 0
-418.86 -4.8448 0
-417.243 -4.84742 0
-415.625 -4.84799 0
-414.007 -4.84905 0
-412.391 -4.8503 0
-410.773 -4.85063 0
-409.159 -4.85049 0
-407.539 -4.8499 0
-405.92 -4.84888 0
-404.303 -4.85144 0
-402.685 -4.84847 0
-401.069 -4.85211 0
-399.451 -4.85272 0
-397.836 -4.85199 0
-396.219 -4.85157 0
-394.601 -4.85246 0
-392.981 -4.85056 0
-391.364 -4.85002 0
-389.748 -4.84801 0
-388.129 -4.85022 0
-386.513 -4.84956 0
-384.895 -4.84889 0
-383.278 -4.84996 0
-381.661 -4.84652 0
-380.043 -4.84577 0
-378.428 -4.84466 0
-376.81 -4.84406 0
-375.193 -4.84565 0
-373.574 -4.8448 0
-371.957 -4.84406 0
-370.342 -4.84236 0
-368.723 -4.84335 0
-367.103 -4.8406 0
-365.485 -4.8422 0
-363.869 -4.84222 0
-362.25 -4.84144 0
-360.633 -4.8414 0
-359.016 -4.83965 0
-357.399 -4.84051 0
-355.781 -4.83648 0
-354.165 -4.83576 0
-352.549 -4.83649 0
-350.929 -4.83433 0
-349.311 -4.83405 0
-347.694 -4.83472 0
-346.078 -4.83326 0
-344.461 -4.83157 0
-342.846 -4.82837 0
-341.23 -4.82945 0
-339.61 -4.8282 0
-337.991 -4.82828 0
-336.374 -4.8266 0
-334.755 -4.82606 0
-333.139 -4.82404 0
-331.523 -4.82493 0
-329.903 -4.82386 0
-328.287 -4.81946 0
-326.668 -4.82082 0
-325.051 -4.81988 0
-323.432 -4.81847 0
-321.815 -4.81913 0
-320.196 -4.8184 0
-318.581 -4.81695 0
-316.962 -4.81488 0
-315.345 -4.8159 0
-313.729 -4.81308 0
-312.112 -4.81283 0
-310.495 -4.81328 0
-308.877 -4.81139 0
-307.26 -4.80871 0
-305.642 -4.8066 0
-304.025 -4.80591 0
-302.406 -4.80726 0
-300.789 -4.80543 0
-299.17 -4.8081 0
-297.554 -4.80614 0
-295.938 -4.80409 0
-294.317 -4.80526 0
-292.7 -4.80358 0
-291.081 -4.80218 0
-289.465 -4.80272 0
-287.846 -4.8002 0
-286.228 -4.79982 0
-284.61 -4.79894 0
-282.993 -4.79761 0
-281.376 -4.7967 0
-279.758 -4.79908 0
-278.141 -4.79729 0
-276.524 -4.79802 0
-274.906 -4.79545 0
-273.289 -4.79461 0
-271.673 -4.79358 0
-270.054 -4.79309 0
-268.437 -4.79352 0
-266.819 -4.79436 0
-265.202 -4.79426 0
-263.585 -4.79217 0
-261.967 -4.79066 0
-260.348 -4.79237 0
-258.73 -4.79213 0
-257.114 -4.78992 0
-255.497 -4.78962 0
-253.88 -4.78884 0
-252.26 -4.78994 0
-250.644 -4.78846 0
-249.027 -4.78962 0
-247.409 -4.78725 0
-245.79 -4.79038 0
-244.174 -4.78869 0
-242.556 -4.78772 0
-240.938 -4.78704 0
-239.319 -4.78745 0
-237.703 -4.78705 0
-236.084 -4.7894 0
-234.467 -4.7878 0
-232.849 -4.79267 0
-231.232 -4.78814 0
-229.618 -4.78588 0
-228 -4.78591 0
-226.383 -4.78615 0
-224.764 -4.78701 0
-223.149 -4.78733 0
-221.53 -4.78574 0
-219.912 -4.78544 0
-218.295 -4.78598 0
-216.678 -4.78583 0
-215.06 -4.78672 0
-213.442 -4.78489 0
-211.825 -4.78444 0
-210.208 -4.78769 0
-208.593 -4.78931 0
-206.974 -4.78774 0
-205.358 -4.78908 0
-203.741 -4.78806 0
-202.123 -4.78958 0
-200.504 -4.78975 0
-198.889 -4.78959 0
-197.275 -4.79145 0
-195.656 -4.78827 0
-194.037 -4.79001 0
-192.42 -4.78806 0
-190.802 -4.78986 0
-189.186 -4.78853 0
-187.57 -4.78828 0
-185.955 -4.79149 0
-184.335 -4.78892 0
-182.719 -4.78923 0
-181.1 -4.78791 0
-179.485 -4.78671 0
-177.867 -4.78786 0
-176.25 -4.78872 0
-174.63 -4.79247 0
-173.013 -4.78999 0
-171.398 -4.78864 0
-169.779 -4.78815 0
-168.162 -4.78745 0
-166.545 -4.78783 0
-164.929 -4.78702 0
-163.313 -4.78639 0
-161.696 -4.78715 0
-160.079 -4.78544 0
-158.461 -4.78614 0
-156.843 -4.7875 0
-155.225 -4.78861 0
-153.609 -4.78898 0
-151.992 -4.7877 0
-150.371 -4.78765 0
-148.755 -4.78333 0
-147.139 -4.78453 0
-145.521 -4.78645 0
-143.904 -4.78437 0
-142.287 -4.78553 0
-140.67 -4.78653 0
-139.052 -4.78797 0
-137.436 -4.7865 0
-135.822 -4.78792 0
-134.204 -4.78864 0
-132.587 -4.78832 0
-130.97 -4.78969 0
-129.352 -4.78814 0
-127.736 -4.78851 0
-126.12 -4.78926 0
-124.501 -4.78895 0
-122.883 -4.79129 0
-121.267 -4.79109 0
-119.649 -4.79031 0
-118.032 -4.78951 0
-116.415 -4.78811 0
-114.797 -4.79009 0
-113.178 -4.79 0
-111.561 -4.79149 0
-109.945 -4.79092 0
-108.33 -4.78973 0
-106.712 -4.79093 0
-105.097 -4.79099 0
-103.48 -4.78979 0
-101.861 -4.78998 0
-100.245 -4.78924 0
-98.6295 -4.7927 0
-97.0118 -4.7907 0
-95.3945 -4.79296 0
-93.7779 -4.79139 0
-92.1603 -4.79158 0
-90.5429 -4.79189 0
-88.9262 -4.7906 0
-87.311 -4.79184 0
-85.6946 -4.78919 0
-84.0777 -4.78915 0
-82.4601 -4.78904 0
-80.8423 -4.7903 0
-79.2247 -4.79074 0
-77.607 -4.79118 0
-75.9911 -4.79093 0
-74.3748 -4.79082 0
-72.7587 -4.79141 0
-71.1407 -4.79103 0
-69.5237 -4.79156 0
-67.9059 -4.79247 0
-66.2892 -4.79217 0
-64.6733 -4.79283 0
-63.0568 -4.79292 0
-61.4404 -4.79115 0
-59.8227 -4.79205 0
-58.2066 -4.79069 0
-56.5891 -4.79201 0
-54.9728 -4.79226 0
-53.3552 -4.79147 0
-51.7381 -4.792 0
-50.1201 -4.79154 0
-48.5057 -4.79056 0
-46.8882 -4.79142 0
-45.2726 -4.79062 0
-43.6547 -4.79135 0
-42.0394 -4.79151 0
-40.4214 -4.7901 0
-38.8046 -4.79103 0
-37.1859 -4.78918 0
-35.5704 -4.78714 0
-33.9542 -4.78656 0
-32.3353 -4.78719 0
-30.7179 -4.78878 0
-29.102 -4.79043 0
-27.4866 -4.78956 0
-25.8691 -4.7913 0
-24.2536 -4.78811 0
-22.633 -4.78576 0
-21.0167 -4.7873 0
-19.4006 -4.78796 0
-17.7832 -4.78607 0
-16.1686 -4.78645 0
-14.5497 -4.78584 0
-12.9328 -4.78826 0
-11.3173 -4.78627 0
-9.70176 -4.78646 0
-8.08477 -4.78877 0
-6.46904 -4.78876 0
-4.8516 -4.78799 0
-3.2339 -4.78815 0
-1.61528 -4.78855 0
0 -4.7884 0
-1092.76 55.8885 0
-1092.83 49.4156 0
-1092.87 43.1623 0
-1092.87 37.2292 0
-1092.87 31.6451 0
-1092.92 26.3275 0
-1092.94 21.211 0
-1092.88 16.381 0
-1092.77 11.9265 0
-1092.63 7.86815 0
-1092.48 4.20121 0
-1092.29 0.916965 0
-1092.08 -1.99835 0
-1091.83 -4.56283 0
-1091.54 -6.79929 0
-1091.2 -8.73451 0
-1090.81 -10.3951 0
-1090.37 -11.8073 0
-1089.87 -12.9964 0
-1089.32 -13.9859 0
-1088.72 -14.7964 0
-1088.06 -15.4478 0
-1087.35 -15.9563 0
-1086.59 -16.3383 0
-1085.78 -16.6068 0
-1084.94 -16.7742 0
-1084.04 -16.8511 0
-1083.11 -16.8475 0
-1082.15 -16.7715 0
-1081.14 -16.6306 0
-1080.1 -16.4313 0
-1079.03 -16.1798 0
-1077.93 -15.8814 0
-1076.8 -15.5403 0
-1075.64 -15.162 0
-1074.45 -14.7501 0
-1073.23 -14.308 0
-1071.99 -13.8399 0
-1070.72 -13.3495 0
-1069.43 -12.8394 0
-1068.11 -12.3127 0
-1066.76 -11.7733 0
-1065.4 -11.2229 0
-1064.01 -10.6648 0
-1062.6 -10.1009 0
-1061.17 -9.53461 0
-1059.72 -8.96759 0
-1058.24 -8.40224 0
-1056.75 -7.84059 0
-1055.25 -7.28448 0
-1053.72 -6.73574 0
-1052.18 -6.19609 0
-1050.62 -5.66688 0
-1049.05 -5.1492 0
-1047.47 -4.64475 0
-1045.87 -4.15462 0
-1044.26 -3.67988 0
-1042.64 -3.2213 0
-1041.01 -2.77982 0
-1039.37 -2.35616 0
-1037.71 -1.95057 0
-1036.05 -1.56348 0
-1034.39 -1.19594 0
-1032.71 -0.84764 0
-1031.03 -0.519992 0
-1029.34 -0.211596 0
-1027.65 0.0765822 0
-1025.95 0.344273 0
-1024.25 0.591988 0
-1022.55 0.819521 0
-1020.84 1.02788 0
-1019.13 1.21618 0
-1017.41 1.38484 0
-1015.7 1.53493 0
-1013.98 1.66587 0
-1012.27 1.77805 0
-1010.55 1.87316 0
-1008.84 1.95046 0
-1007.12 2.01038 0
-1005.41 2.05391 0
-1003.69 2.08158 0
-1001.98 2.09348 0
-1000.27 2.09118 0
-998.559 2.07431 0
-996.852 2.0439 0
-995.148 2.0003 0
-993.446 1.9446 0
-991.746 1.87668 0
-990.049 1.79795 0
-988.355 1.70888 0
-986.665 1.60977 0
-984.978 1.50147 0
-983.294 1.38483 0
-981.613 1.25985 0
-979.935 1.12856 0
-978.261 0.990658 0
-976.591 0.846817 0
-974.924 0.697246 0
-973.261 0.542926 0
-971.601 0.384578 0
-969.944 0.22279 0
-968.291 0.057382 0
-966.642 -0.109998 0
-964.996 -0.27855 0
-963.353 -0.449039 0
-961.713 -0.620843 0
-960.077 -0.792862 0
-958.443 -0.964628 0
-956.812 -1.13568 0
-955.184 -1.30608 0
-953.56 -1.47444 0
-951.938 -1.64163 0
-950.319 -1.80708 0
-948.702 -1.96936 0
-947.088 -2.12917 0
-945.476 -2.28569 0
-943.866 -2.43948 0
-942.259 -2.58875 0
-940.652 -2.7346 0
-939.048 -2.87588 0
-937.446 -3.01335 0
-935.846 -3.14656 0
-934.247 -3.27485 0
-932.649 -3.39823 0
-931.053 -3.51636 0
-929.458 -3.6304 0
-927.864 -3.73854 0
-926.271 -3.8417 0
-924.679 -3.93894 0
-923.088 -4.03099 0
-921.497 -4.11818 0
-919.906 -4.19971 0
-918.315 -4.27569 0
-916.726 -4.34611 0
-915.137 -4.41137 0
-913.548 -4.47141 0
-911.96 -4.5267 0
-910.371 -4.57708 0
-908.782 -4.62204 0
-907.193 -4.66177 0
-905.604 -4.69609 0
-904.015 -4.72533 0
-902.425 -4.74963 0
-900.836 -4.77063 0
-899.245 -4.78581 0
-897.655 -4.79706 0
-896.063 -4.80351 0
-894.471 -4.80604 0
-892.879 -4.80501 0
-891.285 -4.80034 0
-889.691 -4.79095 0
-888.097 -4.77877 0
-886.502 -4.76335 0
-884.906 -4.74493 0
-883.308 -4.72241 0
-881.71 -4.69727 0
-880.111 -4.66995 0
-878.511 -4.64036 0
-876.911 -4.60748 0
-875.309 -4.57175 0
-873.708 -4.53432 0
-872.105 -4.49585 0
-870.501 -4.45514 0
-868.896 -4.41163 0
-867.29 -4.36799 0
-865.683 -4.32284 0
-864.075 -4.27639 0
-862.467 -4.22889 0
-860.857 -4.18064 0
-859.246 -4.13109 0
-857.635 -4.08045 0
-856.023 -4.02973 0
-854.411 -3.97895 0
-852.797 -3.92841 0
-851.183 -3.87679 0
-849.568 -3.82523 0
-847.952 -3.77416 0
-846.335 -3.72253 0
-844.718 -3.67235 0
-843.099 -3.62193 0
-841.481 -3.57189 0
-839.862 -3.52222 0
-838.241 -3.47445 0
-836.621 -3.42653 0
-834.999 -3.37922 0
-833.377 -3.33358 0
-831.755 -3.28887 0
-830.133 -3.24572 0
-828.51 -3.2018 0
-826.887 -3.16031 0
-825.263 -3.1194 0
-823.639 -3.08076 0
-822.013 -3.04293 0
-820.387 -3.00736 0
-818.762 -2.97234 0
-817.136 -2.93887 0
-815.51 -2.90658 0
-813.884 -2.87549 0
-812.257 -2.8466 0
-810.631 -2.8193 0
-809.004 -2.79366 0
-807.377 -2.7689 0
-805.75 -2.74505 0
-804.123 -2.72326 0
-802.496 -2.70303 0
-800.869 -2.6843 0
-799.241 -2.66783 0
-797.613 -2.65213 0
-795.987 -2.63748 0
-794.36 -2.62533 0
-792.732 -2.61562 0
-791.105 -2.60545 0
-789.477 -2.59696 0
-787.851 -2.59006 0
-786.224 -2.58544 0
-784.597 -2.5821 0
-782.971 -2.57919 0
-781.345 -2.57783 0
-779.719 -2.57724 0
-778.092 -2.57816 0
-776.467 -2.5806 0
-774.841 -2.58379 0
-773.215 -2.58804 0
-771.589 -2.59333 0
-769.964 -2.60007 0
-768.34 -2.60767 0
-766.714 -2.61609 0
-765.089 -2.62575 0
-763.465 -2.63549 0
-761.841 -2.64747 0
-760.217 -2.6587 0
-758.593 -2.67023 0
-756.97 -2.68376 0
-755.348 -2.69683 0
-753.727 -2.71083 0
-752.104 -2.72589 0
-750.482 -2.7409 0
-748.86 -2.75574 0
-747.238 -2.77154 0
-745.618 -2.78911 0
-743.997 -2.80545 0
-742.376 -2.82153 0
-740.754 -2.83851 0
-739.134 -2.85553 0
-737.515 -2.87291 0
-735.894 -2.8912 0
-734.273 -2.90928 0
-732.654 -2.92712 0
-731.036 -2.94516 0
-729.417 -2.96366 0
-727.798 -2.98172 0
-726.179 -2.99942 0
-724.56 -3.01703 0
-722.942 -3.03471 0
-721.324 -3.05147 0
-719.707 -3.0691 0
-718.088 -3.08617 0
-716.47 -3.10314 0
-714.854 -3.11942 0
-713.236 -3.13752 0
-711.618 -3.15421 0
-710.002 -3.16933 0
-708.385 -3.18461 0
-706.768 -3.20038 0
-705.151 -3.21497 0
-703.535 -3.22877 0
-701.919 -3.2425 0
-700.303 -3.25668 0
-698.687 -3.27015 0
-697.071 -3.28187 0
-695.455 -3.29563 0
-693.839 -3.30733 0
-692.224 -3.31915 0
-690.608 -3.32962 0
-688.992 -3.34006 0
-687.377 -3.34971 0
-685.762 -3.35911 0
-684.147 -3.36815 0
-682.532 -3.37701 0
-680.917 -3.38639 0
-679.301 -3.39201 0
-677.687 -3.39985 0
-676.071 -3.40638 0
-674.456 -3.41257 0
-672.841 -3.41749 0
-671.226 -3.42256 0
-669.611 -3.42804 0
-667.995 -3.43381 0
-666.38 -3.43808 0
-664.765 -3.44204 0
-663.149 -3.44439 0
-661.533 -3.44692 0
-659.919 -3.44971 0
-658.303 -3.45146 0
-656.687 -3.45314 0
-655.072 -3.45416 0
-653.456 -3.45368 0
-651.84 -3.45401 0
-650.225 -3.45347 0
-648.61 -3.45354 0
-646.993 -3.45426 0
-645.376 -3.45406 0
-643.761 -3.45313 0
-642.146 -3.45097 0
-640.529 -3.44842 0
-638.912 -3.44624 0
-637.297 -3.44349 0
-635.681 -3.44089 0
-634.065 -3.43678 0
-632.448 -3.43489 0
-630.832 -3.43108 0
-629.216 -3.42766 0
-627.599 -3.42267 0
-625.982 -3.4179 0
-624.366 -3.41538 0
-622.75 -3.40999 0
-621.132 -3.40659 0
-619.515 -3.40061 0
-617.898 -3.39549 0
-616.28 -3.3905 0
-614.662 -3.38597 0
-613.044 -3.38151 0
-611.426 -3.37605 0
-609.81 -3.36985 0
-608.193 -3.36466 0
-606.575 -3.35903 0
-604.957 -3.35292 0
-603.339 -3.34854 0
-601.722 -3.34339 0
-600.105 -3.33666 0
-598.486 -3.33139 0
-596.869 -3.32473 0
-595.25 -3.3195 0
-593.633 -3.31549 0
-592.014 -3.31083 0
-590.396 -3.30581 0
-588.778 -3.30001 0
-587.16 -3.29296 0
-585.542 -3.28917 0
-583.924 -3.2849 0
-582.306 -3.27861 0
-580.688 -3.27332 0
-579.068 -3.26838 0
-577.45 -3.26515 0
-575.831 -3.25935 0
-574.213 -3.25555 0
-572.594 -3.25104 0
-570.975 -3.24557 0
-569.357 -3.24054 0
-567.738 -3.2374 0
-566.119 -3.23334 0
-564.5 -3.22898 0
-562.881 -3.22576 0
-561.262 -3.22217 0
-559.644 -3.21786 0
-558.025 -3.21513 0
-556.405 -3.21359 0
-554.786 -3.20922 0
-553.168 -3.20544 0
-551.548 -3.20292 0
-549.93 -3.19977 0
-548.312 -3.19891 0
-546.692 -3.19597 0
-545.074 -3.19476 0
-543.454 -3.19398 0
-541.835 -3.19163 0
-540.216 -3.18999 0
-538.599 -3.18867 0
-536.98 -3.18611 0
-535.363 -3.18472 0
-533.743 -3.18481 0
-532.124 -3.18342 0
-530.505 -3.18313 0
-528.886 -3.18197 0
-527.267 -3.18199 0
-525.647 -3.18055 0
-524.027 -3.18022 0
-522.409 -3.17952 0
-520.79 -3.17895 0
-519.172 -3.17991 0
-517.554 -3.17855 0
-515.935 -3.17728 0
-514.317 -3.17716 0
-512.698 -3.17846 0
-511.078 -3.17792 0
-509.459 -3.17934 0
-507.84 -3.17959 0
-506.223 -3.18154 0
-504.604 -3.18134 0
-502.985 -3.18298 0
-501.366 -3.18143 0
-499.748 -3.18194 0
-498.131 -3.18466 0
-496.512 -3.18507 0
-494.895 -3.18608 0
-493.277 -3.18865 0
-491.657 -3.18769 0
-490.039 -3.18992 0
-488.421 -3.19116 0
-486.802 -3.19281 0
-485.184 -3.1927 0
-483.566 -3.1928 0
-481.949 -3.19509 0
-480.331 -3.19715 0
-478.713 -3.19717 0
-477.095 -3.19838 0
-475.476 -3.20105 0
-473.858 -3.20416 0
-472.242 -3.20487 0
-470.624 -3.20549 0
-469.007 -3.20636 0
-467.389 -3.2077 0
-465.772 -3.20987 0
-464.154 -3.2108 0
-462.535 -3.21279 0
-460.919 -3.21257 0
-459.301 -3.21518 0
-457.683 -3.21703 0
-456.065 -3.21868 0
-454.446 -3.2217 0
-452.83 -3.22106 0
-451.21 -3.22261 0
-449.592 -3.22481 0
-447.975 -3.22705 0
-446.357 -3.22727 0
-444.74 -3.22909 0
-443.123 -3.23074 0
-441.505 -3.23106 0
-439.888 -3.23261 0
-438.269 -3.23413 0
-436.652 -3.23593 0
-435.036 -3.2366 0
-433.419 -3.23852 0
-431.802 -3.23986 0
-430.185 -3.23999 0
-428.567 -3.24099 0
-426.949 -3.24027 0
-425.331 -3.24322 0
-423.714 -3.24416 0
-422.096 -3.24563 0
-420.479 -3.24678 0
-418.862 -3.24669 0
-417.244 -3.24897 0
-415.627 -3.25011 0
-414.009 -3.25224 0
-412.391 -3.25208 0
-410.773 -3.25049 0
-409.155 -3.25211 0
-407.538 -3.2515 0
-405.921 -3.25229 0
-404.304 -3.25236 0
-402.688 -3.25363 0
-401.071 -3.25447 0
-399.453 -3.25391 0
-397.834 -3.25434 0
-396.216 -3.25394 0
-394.599 -3.25379 0
-392.983 -3.25283 0
-391.365 -3.2517 0
-389.748 -3.25072 0
-388.13 -3.25269 0
-386.513 -3.25246 0
-384.895 -3.2505 0
-383.278 -3.25122 0
-381.661 -3.24865 0
-380.043 -3.24766 0
-378.427 -3.24742 0
-376.812 -3.24603 0
-375.192 -3.24766 0
-373.575 -3.24551 0
-371.957 -3.24667 0
-370.34 -3.24571 0
-368.722 -3.24501 0
-367.103 -3.24469 0
-365.485 -3.24349 0
-363.868 -3.24425 0
-362.25 -3.24361 0
-360.632 -3.24286 0
-359.014 -3.24309 0
-357.397 -3.24103 0
-355.78 -3.24013 0
-354.164 -3.23955 0
-352.547 -3.2383 0
-350.928 -3.23551 0
-349.312 -3.23588 0
-347.693 -3.23664 0
-346.074 -3.23453 0
-344.458 -3.23445 0
-342.842 -3.23113 0
-341.226 -3.23223 0
-339.61 -3.22954 0
-337.991 -3.22906 0
-336.372 -3.22886 0
-334.756 -3.22847 0
-333.138 -3.22717 0
-331.521 -3.22686 0
-329.903 -3.22588 0
-328.286 -3.22367 0
-326.668 -3.22351 0
-325.05 -3.22104 0
-323.432 -3.22082 0
-321.815 -3.22016 0
-320.196 -3.22059 0
-318.577 -3.21812 0
-316.961 -3.21841 0
-315.345 -3.21708 0
-313.727 -3.21689 0
-312.11 -3.21449 0
-310.493 -3.21425 0
-308.875 -3.21269 0
-307.258 -3.2105 0
-305.64 -3.20914 0
-304.022 -3.2092 0
-302.406 -3.20857 0
-300.787 -3.20815 0
-299.171 -3.20832 0
-297.553 -3.20966 0
-295.935 -3.20609 0
-294.318 -3.2037 0
-292.7 -3.20524 0
-291.083 -3.20524 0
-289.465 -3.20467 0
-287.847 -3.20282 0
-286.229 -3.20152 0
-284.61 -3.20035 0
-282.994 -3.20077 0
-281.377 -3.19995 0
-279.759 -3.19959 0
-278.141 -3.20061 0
-276.523 -3.19918 0
-274.906 -3.19728 0
-273.287 -3.19778 0
-271.671 -3.1965 0
-270.055 -3.19694 0
-268.437 -3.19544 0
-266.82 -3.19544 0
-265.202 -3.1959 0
-263.584 -3.1937 0
-261.966 -3.19451 0
-260.349 -3.19255 0
-258.731 -3.19411 0
-257.113 -3.19366 0
-255.496 -3.19214 0
-253.879 -3.19106 0
-252.262 -3.19211 0
-250.644 -3.19169 0
-249.025 -3.19093 0
-247.409 -3.19009 0
-245.791 -3.19187 0
-244.172 -3.19044 0
-242.555 -3.19012 0
-240.937 -3.18709 0
-239.319 -3.18935 0
-237.702 -3.19045 0
-236.085 -3.18999 0
-234.468 -3.19055 0
-232.85 -3.19224 0
-231.232 -3.19152 0
-229.616 -3.1878 0
-227.999 -3.18765 0
-226.382 -3.18848 0
-224.765 -3.19014 0
-223.146 -3.18856 0
-221.53 -3.18788 0
-219.912 -3.18948 0
-218.295 -3.18972 0
-216.679 -3.18819 0
-215.061 -3.18643 0
-213.444 -3.18788 0
-211.826 -3.18903 0
-210.209 -3.18983 0
-208.592 -3.19265 0
-206.975 -3.19029 0
-205.357 -3.19066 0
-203.741 -3.19092 0
-202.124 -3.19251 0
-200.508 -3.19275 0
-198.891 -3.19366 0
-197.273 -3.19229 0
-195.654 -3.1908 0
-194.037 -3.1925 0
-192.419 -3.19166 0
-190.803 -3.19202 0
-189.187 -3.19111 0
-187.571 -3.19262 0
-185.953 -3.19216 0
-184.336 -3.19329 0
-182.718 -3.19021 0
-181.1 -3.19173 0
-179.484 -3.1908 0
-177.867 -3.1898 0
-176.25 -3.19203 0
-174.632 -3.19219 0
-173.014 -3.19285 0
-171.395 -3.19206 0
-169.779 -3.18933 0
-168.162 -3.19187 0
-166.545 -3.19005 0
-164.929 -3.19015 0
-163.312 -3.19074 0
-161.694 -3.18782 0
-160.079 -3.18824 0
-158.462 -3.18849 0
-156.844 -3.18971 0
-155.225 -3.19033 0
-153.608 -3.19106 0
-151.991 -3.18962 0
-150.372 -3.18813 0
-148.755 -3.18743 0
-147.138 -3.18864 0
-145.523 -3.18874 0
-143.904 -3.18897 0
-142.288 -3.18836 0
-140.671 -3.18927 0
-139.055 -3.1903 0
-137.438 -3.18983 0
-135.821 -3.18968 0
-134.205 -3.19115 0
-132.588 -3.19182 0
-130.971 -3.19072 0
-129.353 -3.1902 0
-127.737 -3.19034 0
-126.119 -3.19175 0
-124.502 -3.19173 0
-122.884 -3.19326 0
-121.266 -3.19364 0
-119.649 -3.19277 0
-118.031 -3.19348 0
-116.415 -3.19024 0
-114.797 -3.19225 0
-113.179 -3.19307 0
-111.562 -3.19362 0
-109.945 -3.19393 0
-108.329 -3.19405 0
-106.712 -3.19301 0
-105.097 -3.19161 0
-103.479 -3.19173 0
-101.863 -3.19197 0
-100.246 -3.1937 0
-98.6288 -3.19303 0
-97.012 -3.19376 0
-95.3942 -3.19435 0
-93.7773 -3.19324 0
-92.1601 -3.19457 0
-90.543 -3.19372 0
-88.9261 -3.19438 0
-87.3094 -3.19412 0
-85.6928 -3.19285 0
-84.0753 -3.19158 0
-82.4586 -3.19154 0
-80.8425 -3.19207 0
-79.2264 -3.19437 0
-77.6084 -3.19381 0
-75.99 -3.19341 0
-74.373 -3.19385 0
-72.7572 -3.19375 0
-71.1416 -3.19491 0
-69.5251 -3.194 0
-67.9084 -3.19541 0
-66.2904 -3.19491 0
-64.6743 -3.19585 0
-63.0566 -3.19507 0
-61.4401 -3.19508 0
-59.8231 -3.19446 0
-58.2064 -3.19358 0
-56.5896 -3.19416 0
-54.9717 -3.19397 0
-53.3551 -3.1942 0
-51.7382 -3.19351 0
-50.1205 -3.194 0
-48.5041 -3.19415 0
-46.8881 -3.19368 0
-45.2714 -3.19438 0
-43.6558 -3.19325 0
-42.038 -3.19405 0
-40.4214 -3.19303 0
-38.8045 -3.19286 0
-37.1865 -3.19135 0
-35.5695 -3.19081 0
-33.9532 -3.19026 0
-32.3376 -3.18963 0
-30.7195 -3.19177 0
-29.1024 -3.19166 0
-27.4864 -3.19212 0
-25.8685 -3.19172 0
-24.2496 -3.19135 0
-22.6348 -3.18943 0
-21.0179 -3.18999 0
-19.3999 -3.19072 0
-17.7837 -3.18961 0
-16.1674 -3.18899 0
-14.5512 -3.18952 0
-12.9329 -3.19168 0
-11.3156 -3.18971 0
-9.70025 -3.18935 0
-8.08444 -3.19088 0
-6.46751 -3.19205 0
-4.85143 -3.19155 0
-3.23453 -3.19135 0
-1.61695 -3.19154 0
0 -3.18978 0
-1099.53 56.5373 0
-1099.17 49.8531 0
-1098.95 43.622 0
-1098.7 37.6958 0
-1098.44 32.0541 0
-1098.18 26.6904 0
-1097.89 21.6172 0
-1097.54 16.8439 0
-1097.11 12.4092 0
-1096.62 8.35287 0
-1096.1 4.68639 0
-1095.56 1.40519 0
-1094.99 -1.50285 0
-1094.41 -4.05502 0
-1093.8 -6.27358 0
-1093.17 -8.18515 0
-1092.51 -9.81661 0
-1091.82 -11.1955 0
-1091.1 -12.3483 0
-1090.35 -13.2992 0
-1089.57 -14.0705 0
-1088.75 -14.6822 0
-1087.9 -15.1519 0
-1087.01 -15.4959 0
-1086.09 -15.7274 0
-1085.14 -15.8593 0
-1084.16 -15.9024 0
-1083.15 -15.8657 0
-1082.1 -15.7583 0
-1081.04 -15.587 0
-1079.94 -15.3584 0
-1078.82 -15.0782 0
-1077.67 -14.7524 0
-1076.49 -14.3847 0
-1075.3 -13.9801 0
-1074.07 -13.5423 0
-1072.83 -13.0754 0
-1071.56 -12.5828 0
-1070.27 -12.0689 0
-1068.95 -11.5355 0
-1067.62 -10.9864 0
-1066.26 -10.4248 0
-1064.89 -9.85304 0
-1063.49 -9.27419 0
-1062.07 -8.69063 0
-1060.64 -8.1052 0
-1059.19 -7.51973 0
-1057.72 -6.93639 0
-1056.23 -6.3576 0
-1054.73 -5.78547 0
-1053.21 -5.22098 0
-1051.68 -4.66639 0
-1050.13 -4.1232 0
-1048.57 -3.59237 0
-1047 -3.07514 0
-1045.42 -2.5735 0
-1043.82 -2.08777 0
-1042.21 -1.61866 0
-1040.6 -1.16739 0
-1038.97 -0.734653 0
-1037.34 -0.320823 0
-1035.69 0.0737278 0
-1034.04 0.448485 0
-1032.39 0.802894 0
-1030.73 1.13714 0
-1029.06 1.45042 0
-1027.38 1.7432 0
-1025.71 2.01516 0
-1024.02 2.26625 0
-1022.34 2.4974 0
-1020.65 2.708 0
-1018.95 2.89859 0
-1017.26 3.06904 0
-1015.56 3.22014 0
-1013.87 3.35214 0
-1012.17 3.46531 0
-1010.47 3.56001 0
-1008.77 3.63741 0
-1007.07 3.69697 0
-1005.37 3.73983 0
-1003.67 3.76625 0
-1001.97 3.77704 0
-1000.28 3.77318 0
-998.58 3.75479 0
-996.886 3.72181 0
-995.193 3.6763 0
-993.503 3.6184 0
-991.814 3.54821 0
-990.128 3.46697 0
-988.444 3.37485 0
-986.763 3.27277 0
-985.084 3.16178 0
-983.408 3.04173 0
-981.734 2.91429 0
-980.063 2.77956 0
-978.395 2.63878 0
-976.731 2.49146 0
-975.068 2.33898 0
-973.41 2.18129 0
-971.754 2.01987 0
-970.1 1.85485 0