<?xml version="1.0"?>
<VTKFile type="StructuredGrid"  version="0.1" byte_order="LittleEndian" compressor="vtkZLibDataCompressor">
  <StructuredGrid WholeExtent="0 700 0 30 0 0">
    <Piece Extent="0 700 0 30 0 0">
      <PointData Vectors="Velocity">
        <DataArray type="Float32" Name="Velocity" NumberOfComponents="3" format="ascii">
-1092.24 65.7307 0
-1092.41 58.7467 0
-1092.65 51.9433 0
-1092.92 45.4371 0
-1093.17 39.2618 0
-1093.37 33.352 0
-1093.57 27.6506 0
-1093.8 22.2241 0
-1094.05 17.1552 0
-1094.29 12.4696 0
-1094.5 8.1651 0
-1094.68 4.2338 0
-1094.82 0.664305 0
-1094.92 -2.55821 0
-1094.97 -5.45212 0
-1094.95 -8.0386 0
-1094.88 -10.3394 0
-1094.73 -12.3778 0
-1094.51 -14.1745 0
-1094.22 -15.7499 0
-1093.87 -17.1233 0
-1093.45 -18.3116 0
-1092.97 -19.3317 0
-1092.42 -20.1983 0
-1091.82 -20.9244 0
-1091.17 -21.5221 0
-1090.47 -22.0027 0
-1089.72 -22.376 0
-1088.93 -22.6506 0
-1088.09 -22.8347 0
-1087.22 -22.9353 0
-1086.3 -22.9595 0
-1085.35 -22.9129 0
-1084.37 -22.8002 0
-1083.35 -22.6269 0
-1082.3 -22.3977 0
-1081.22 -22.1172 0
-1080.1 -21.7891 0
-1078.96 -21.4174 0
-1077.79 -21.006 0
-1076.59 -20.558 0
-1075.36 -20.0772 0
-1074.1 -19.5672 0
-1072.81 -19.0305 0
-1071.5 -18.4709 0
-1070.16 -17.8914 0
-1068.8 -17.2949 0
-1067.41 -16.6833 0
-1066 -16.0606 0
-1064.57 -15.4293 0
-1063.11 -14.7904 0
-1061.64 -14.1477 0
-1060.14 -13.5032 0
-1058.62 -12.8587 0
-1057.09 -12.2163 0
-1055.53 -11.5773 0
-1053.96 -10.9439 0
-1052.37 -10.3178 0
-1050.77 -9.70038 0
-1049.15 -9.09315 0
-1047.52 -8.49741 0
-1045.88 -7.91463 0
-1044.22 -7.34508 0
-1042.56 -6.79023 0
-1040.88 -6.2513 0
-1039.19 -5.72921 0
-1037.49 -5.22395 0
-1035.78 -4.73585 0
-1034.07 -4.26643 0
-1032.35 -3.81604 0
-1030.62 -3.38494 0
-1028.89 -2.97322 0
-1027.15 -2.58135 0
-1025.4 -2.20957 0
-1023.65 -1.85814 0
-1021.9 -1.52665 0
-1020.15 -1.21582 0
-1018.39 -0.924919 0
-1016.63 -0.65473 0
-1014.87 -0.404874 0
-1013.1 -0.174531 0
-1011.34 0.0358322 0
-1009.58 0.226589 0
-1007.81 0.398235 0
-1006.05 0.550971 0
-1004.28 0.685089 0
-1002.52 0.801008 0
-1000.76 0.899454 0
-998.999 0.979852 0
-997.241 1.04318 0
-995.485 1.08992 0
-993.732 1.1205 0
-991.981 1.13645 0
-990.233 1.13733 0
-988.489 1.12309 0
-986.747 1.09542 0
-985.008 1.05351 0
-983.273 0.99943 0
-981.541 0.93332 0
-979.813 0.855654 0
-978.089 0.766602 0
-976.369 0.66788 0
-974.652 0.558902 0
-972.94 0.439882 0
-971.232 0.312611 0
-969.527 0.176815 0
-967.827 0.0344649 0
-966.131 -0.116278 0
-964.438 -0.272608 0
-962.749 -0.434327 0
-961.065 -0.602212 0
-959.386 -0.774021 0
-957.71 -0.95067 0
-956.038 -1.13093 0
-954.37 -1.31459 0
-952.705 -1.49957 0
-951.045 -1.68836 0
-949.388 -1.87791 0
-947.734 -2.06863 0
-946.085 -2.26077 0
-944.438 -2.4532 0
-942.795 -2.64509 0
-941.156 -2.83635 0
-939.519 -3.02691 0
-937.886 -3.21685 0
-936.256 -3.40516 0
-934.628 -3.59058 0
-933.003 -3.77482 0
-931.381 -3.95669 0
-929.762 -4.13472 0
-928.144 -4.30946 0
-926.529 -4.4814 0
-924.915 -4.64963 0
-923.304 -4.81428 0
-921.695 -4.97523 0
-920.088 -5.1311 0
-918.482 -5.2835 0
-916.879 -5.42935 0
-915.276 -5.57187 0
-913.675 -5.70862 0
-912.076 -5.84157 0
-910.478 -5.96903 0
-908.88 -6.09116 0
-907.283 -6.20804 0
-905.687 -6.31903 0
-904.092 -6.42464 0
-902.497 -6.52424 0
-900.903 -6.62008 0
-899.31 -6.7101 0
-897.716 -6.79383 0
-896.124 -6.87233 0
-894.531 -6.94619 0
-892.938 -7.01272 0
-891.345 -7.07558 0
-889.753 -7.13196 0
-888.16 -7.1825 0
-886.567 -7.22916 0
-884.974 -7.27005 0
-883.38 -7.30589 0
-881.786 -7.33582 0
-880.191 -7.3614 0
-878.596 -7.38345 0
-877.001 -7.39897 0
-875.404 -7.41025 0
-873.807 -7.41801 0
-872.21 -7.41916 0
-870.613 -7.41824 0
-869.013 -7.41221 0
-867.413 -7.40208 0
-865.812 -7.38859 0
-864.21 -7.3708 0
-862.608 -7.3505 0
-861.005 -7.32645 0
-859.401 -7.29768 0
-857.795 -7.26669 0
-856.189 -7.23297 0
-854.582 -7.19617 0
-852.973 -7.15587 0
-851.364 -7.11361 0
-849.754 -7.06909 0
-848.142 -7.02181 0
-846.529 -6.97263 0
-844.915 -6.92071 0
-843.301 -6.86727 0
-841.687 -6.81272 0
-840.069 -6.75577 0
-838.452 -6.69728 0
-836.834 -6.63865 0
-835.213 -6.57925 0
-833.592 -6.51757 0
-831.97 -6.45461 0
-830.347 -6.39092 0
-828.723 -6.3272 0
-827.099 -6.26256 0
-825.473 -6.19842 0
-823.846 -6.13263 0
-822.219 -6.0667 0
-820.591 -6.00091 0
-818.962 -5.93569 0
-817.332 -5.87148 0
-815.701 -5.80659 0
-814.069 -5.74158 0
-812.437 -5.67756 0
-810.804 -5.61337 0
-809.17 -5.551 0
-807.535 -5.48935 0
-805.9 -5.42728 0
-804.264 -5.36629 0
-802.627 -5.30687 0
-800.99 -5.24847 0
-799.354 -5.18908 0
-797.715 -5.13246 0
-796.077 -5.07671 0
-794.437 -5.02311 0
-792.797 -4.97063 0
-791.157 -4.91933 0
-789.517 -4.86828 0
-787.877 -4.82026 0
-786.236 -4.77301 0
-784.594 -4.72753 0
-782.953 -4.68217 0
-781.311 -4.63927 0
-779.669 -4.59923 0
-778.026 -4.55972 0
-776.382 -4.52083 0
-774.74 -4.48488 0
-773.098 -4.4512 0
-771.455 -4.41721 0
-769.811 -4.38636 0
-768.168 -4.35616 0
-766.525 -4.327 0
-764.882 -4.30171 0
-763.24 -4.27543 0
-761.597 -4.24939 0
-759.954 -4.22812 0
-758.309 -4.20953 0
-756.665 -4.1918 0
-755.022 -4.17396 0
-753.38 -4.15877 0
-751.736 -4.14495 0
-750.093 -4.13208 0
-748.451 -4.12122 0
-746.808 -4.11335 0
-745.165 -4.10517 0
-743.523 -4.09885 0
-741.882 -4.09367 0
-740.241 -4.09158 0
-738.597 -4.08763 0
-736.957 -4.08659 0
-735.316 -4.08511 0
-733.676 -4.08764 0
-732.035 -4.09046 0
-730.395 -4.09374 0
-728.754 -4.09851 0
-727.114 -4.104 0
-725.476 -4.10997 0
-723.836 -4.11769 0
-722.196 -4.12802 0
-720.558 -4.13797 0
-718.919 -4.14787 0
-717.28 -4.15779 0
-715.642 -4.17095 0
-714.004 -4.18341 0
-712.367 -4.19743 0
-710.731 -4.21189 0
-709.094 -4.22618 0
-707.457 -4.24244 0
-705.819 -4.25956 0
-704.183 -4.27353 0
-702.548 -4.29227 0
-700.912 -4.31055 0
-699.276 -4.32867 0
-697.642 -4.34701 0
-696.008 -4.36736 0
-694.375 -4.38673 0
-692.74 -4.40644 0
-691.106 -4.42519 0
-689.472 -4.44663 0
-687.839 -4.46748 0
-686.207 -4.48779 0
-684.573 -4.50789 0
-682.94 -4.52936 0
-681.308 -4.55059 0
-679.677 -4.57053 0
-678.046 -4.59281 0
-676.415 -4.61407 0
-674.784 -4.6363 0
-673.153 -4.65645 0
-671.523 -4.67771 0
-669.894 -4.69749 0
-668.263 -4.71918 0
-666.632 -4.7384 0
-665.001 -4.75741 0
-663.371 -4.7776 0
-661.741 -4.79544 0
-660.112 -4.81656 0
-658.483 -4.83562 0
-656.853 -4.85383 0
-655.225 -4.87124 0
-653.596 -4.89099 0
-651.965 -4.90867 0
-650.339 -4.92657 0
-648.711 -4.94362 0
-647.082 -4.96207 0
-645.452 -4.97585 0
-643.823 -4.99253 0
-642.197 -5.00776 0
-640.569 -5.02302 0
-638.941 -5.0372 0
-637.312 -5.05006 0
-635.685 -5.0648 0
-634.058 -5.07604 0
-632.429 -5.08905 0
-630.802 -5.10077 0
-629.174 -5.11243 0
-627.546 -5.12448 0
-625.92 -5.13779 0
-624.29 -5.14668 0
-622.662 -5.15853 0
-621.034 -5.16837 0
-619.408 -5.17804 0
-617.78 -5.18556 0
-616.153 -5.19507 0
-614.525 -5.20145 0
-612.896 -5.20737 0
-611.27 -5.21486 0
-609.643 -5.21964 0
-608.015 -5.22751 0
-606.386 -5.23372 0
-604.76 -5.23878 0
-603.13 -5.24254 0
-601.503 -5.24715 0
-599.875 -5.25154 0
-598.247 -5.25358 0
-596.619 -5.25777 0
-594.991 -5.26014 0
-593.363 -5.26336 0
-591.735 -5.26203 0
-590.109 -5.26474 0
-588.48 -5.26868 0
-586.851 -5.26847 0
-585.224 -5.26848 0
-583.595 -5.26873 0
-581.966 -5.2692 0
-580.338 -5.26993 0
-578.708 -5.2675 0
-577.081 -5.26781 0
-575.45 -5.26672 0
-573.821 -5.26621 0
-572.193 -5.26375 0
-570.564 -5.26267 0
-568.933 -5.26135 0
-567.305 -5.25776 0
-565.675 -5.25812 0
-564.044 -5.25546 0
-562.415 -5.25054 0
-560.784 -5.2498 0
-559.157 -5.24843 0
-557.526 -5.24633 0
-555.898 -5.2442 0
-554.268 -5.24126 0
-552.638 -5.23852 0
-551.008 -5.23479 0
-549.377 -5.23143 0
-547.747 -5.2271 0
-546.114 -5.22468 0
-544.483 -5.22275 0
-542.854 -5.22108 0
-541.222 -5.21755 0
-539.594 -5.21307 0
-537.962 -5.20917 0
-536.332 -5.204 0
-534.701 -5.20133 0
-533.07 -5.1963 0
-531.439 -5.19601 0
-529.808 -5.19334 0
-528.178 -5.18903 0
-526.547 -5.18499 0
-524.917 -5.18232 0
-523.285 -5.17778 0
-521.652 -5.1752 0
-520.022 -5.17244 0
-518.391 -5.16798 0
-516.759 -5.16687 0
-515.128 -5.16533 0
-513.495 -5.161 0
-511.864 -5.15995 0
-510.233 -5.15909 0
-508.601 -5.15363 0
-506.971 -5.15232 0
-505.339 -5.14826 0
-503.707 -5.15018 0
-502.076 -5.14615 0
-500.444 -5.14514 0
-498.814 -5.1434 0
-497.18 -5.14028 0
-495.549 -5.13834 0
-493.917 -5.13797 0
-492.285 -5.13676 0
-490.652 -5.13793 0
-489.022 -5.13661 0
-487.389 -5.13614 0
-485.757 -5.13582 0
-484.125 -5.13405 0
-482.493 -5.13518 0
-480.861 -5.13372 0
-479.229 -5.13489 0
-477.597 -5.13601 0
-475.965 -5.13598 0
-474.334 -5.13865 0
-472.701 -5.13858 0
-471.07 -5.14048 0
-469.439 -5.1434 0
-467.805 -5.14404 0
-466.175 -5.14539 0
-464.541 -5.14725 0
-462.91 -5.14984 0
-461.277 -5.15071 0
-459.646 -5.1547 0
-458.013 -5.15261 0
-456.38 -5.15845 0
-454.75 -5.16261 0
-453.118 -5.16486 0
-451.487 -5.16811 0
-449.859 -5.17082 0
-448.227 -5.17253 0
-446.592 -5.17566 0
-444.961 -5.17857 0
-443.328 -5.18419 0
-441.698 -5.18866 0
-440.067 -5.19383 0
-438.434 -5.19771 0
-436.801 -5.20408 0
-435.172 -5.20499 0
-433.539 -5.21242 0
-431.907 -5.21757 0
-430.276 -5.22234 0
-428.643 -5.22538 0
-427.012 -5.23179 0
-425.381 -5.23467 0
-423.749 -5.24147 0
-422.119 -5.24583 0
-420.489 -5.25178 0
-418.858 -5.25453 0
-417.228 -5.26026 0
-415.597 -5.26367 0
-413.966 -5.27127 0
-412.335 -5.27638 0
-410.703 -5.28183 0
-409.071 -5.2913 0
-407.441 -5.29486 0
-405.808 -5.29792 0
-404.179 -5.30121 0
-402.547 -5.30746 0
-400.917 -5.31309 0
-399.288 -5.32046 0
-397.657 -5.32601 0
-396.025 -5.33153 0
-394.392 -5.33873 0
-392.765 -5.34482 0
-391.132 -5.35135 0
-389.502 -5.35683 0
-387.871 -5.3619 0
-386.239 -5.36845 0
-384.611 -5.37643 0
-382.98 -5.38044 0
-381.35 -5.38471 0
-379.72 -5.39135 0
-378.091 -5.39853 0
-376.459 -5.40165 0
-374.828 -5.40647 0
-373.196 -5.4155 0
-371.566 -5.42102 0
-369.934 -5.42732 0
-368.305 -5.4334 0
-366.674 -5.43734 0
-365.044 -5.44619 0
-363.415 -5.45135 0
-361.786 -5.45727 0
-360.159 -5.46267 0
-358.524 -5.46983 0
-356.897 -5.47755 0
-355.267 -5.4807 0
-353.634 -5.48529 0
-352.005 -5.49117 0
-350.376 -5.49608 0
-348.748 -5.50328 0
-347.119 -5.511 0
-345.485 -5.51299 0
-343.856 -5.51811 0
-342.224 -5.52349 0
-340.596 -5.52851 0
-338.966 -5.53192 0
-337.335 -5.53868 0
-335.705 -5.54259 0
-334.076 -5.54938 0
-332.446 -5.55149 0
-330.816 -5.5566 0
-329.182 -5.56376 0
-327.554 -5.56922 0
-325.925 -5.57299 0
-324.294 -5.57883 0
-322.663 -5.58352 0
-321.034 -5.58758 0
-319.406 -5.59227 0
-317.778 -5.59728 0
-316.148 -5.60065 0
-314.518 -5.60625 0
-312.888 -5.61165 0
-311.256 -5.6147 0
-309.629 -5.61728 0
-307.997 -5.6239 0
-306.367 -5.62367 0
-304.738 -5.62772 0
-303.107 -5.63184 0
-301.477 -5.63596 0
-299.848 -5.64031 0
-298.218 -5.64553 0
-296.591 -5.64533 0
-294.958 -5.65136 0
-293.33 -5.65552 0
-291.702 -5.65562 0
-290.07 -5.66241 0
-288.438 -5.66641 0
-286.812 -5.6688 0
-285.18 -5.67191 0
-283.548 -5.67329 0
-281.919 -5.67965 0
-280.289 -5.68 0
-278.659 -5.68289 0
-277.028 -5.68719 0
-275.397 -5.68984 0
-273.769 -5.69587 0
-272.143 -5.69513 0
-270.514 -5.69608 0
-268.884 -5.69994 0
-267.255 -5.70303 0
-265.622 -5.706 0
-263.993 -5.70789 0
-262.365 -5.70978 0
-260.732 -5.71074 0
-259.104 -5.71499 0
-257.473 -5.71783 0
-255.845 -5.72171 0
-254.217 -5.72524 0
-252.588 -5.72782 0
-250.956 -5.73069 0
-249.327 -5.73043 0
-247.698 -5.73268 0
-246.069 -5.7368 0
-244.44 -5.73974 0
-242.81 -5.73994 0
-241.179 -5.74138 0
-239.547 -5.74122 0
-237.917 -5.7455 0
-236.286 -5.74833 0
-234.656 -5.75187 0
-233.029 -5.75391 0
-231.396 -5.75377 0
-229.763 -5.75512 0
-228.134 -5.75615 0
-226.505 -5.75849 0
-224.876 -5.76112 0
-223.246 -5.76443 0
-221.616 -5.76447 0
-219.983 -5.76759 0
-218.358 -5.77119 0
-216.727 -5.7707 0
-215.097 -5.77022 0
-213.468 -5.77166 0
-211.839 -5.77593 0
-210.209 -5.77876 0
-208.58 -5.78074 0
-206.95 -5.77782 0
-205.318 -5.77907 0
-203.688 -5.7826 0
-202.061 -5.78644 0
-200.43 -5.78842 0
-198.796 -5.78844 0
-197.169 -5.79375 0
-195.537 -5.79628 0
-193.906 -5.79455 0
-192.278 -5.79628 0
-190.652 -5.79833 0
-189.021 -5.79976 0
-187.39 -5.8011 0
-185.76 -5.79997 0
-184.134 -5.80344 0
-182.504 -5.80476 0
-180.876 -5.80266 0
-179.243 -5.80749 0
-177.612 -5.81143 0
-175.984 -5.81372 0
-174.354 -5.81354 0
-172.724 -5.81553 0
-171.095 -5.81412 0
-169.462 -5.8181 0
-167.831 -5.82054 0
-166.203 -5.81961 0
-164.571 -5.82512 0
-162.942 -5.82517 0
-161.314 -5.82504 0
-159.684 -5.82737 0
-158.056 -5.82977 0
-156.427 -5.83096 0
-154.795 -5.8312 0
-153.166 -5.83198 0
-151.537 -5.83544 0
-149.909 -5.83367 0
-148.278 -5.8382 0
-146.646 -5.84015 0
-145.019 -5.83848 0
-143.386 -5.84052 0
-141.757 -5.84583 0
-140.126 -5.84432 0
-138.498 -5.84781 0
-136.865 -5.84754 0
-135.24 -5.84838 0
-133.612 -5.85232 0
-131.983 -5.85184 0
-130.352 -5.85403 0
-128.721 -5.85664 0
-127.092 -5.85704 0
-125.462 -5.85828 0
-123.831 -5.86231 0
-122.204 -5.86545 0
-120.573 -5.86644 0
-118.944 -5.86378 0
-117.313 -5.865 0
-115.684 -5.86279 0
-114.059 -5.86609 0
-112.427 -5.87057 0
-110.796 -5.87281 0
-109.167 -5.87535 0
-107.537 -5.87928 0
-105.911 -5.87755 0
-104.28 -5.8821 0
-102.651 -5.88207 0
-101.021 -5.88052 0
-99.3906 -5.882 0
-97.7611 -5.88296 0
-96.1292 -5.88581 0
-94.4975 -5.8838 0
-92.8673 -5.89071 0
-91.2422 -5.89138 0
-89.614 -5.89089 0
-87.9811 -5.88936 0
-86.3517 -5.89523 0
-84.7233 -5.89768 0
-83.0977 -5.89592 0
-81.4679 -5.89678 0
-79.8375 -5.90141 0
-78.2071 -5.90011 0
-76.5792 -5.90037 0
-74.9462 -5.90007 0
-73.3179 -5.90146 0
-71.6881 -5.90447 0
-70.0569 -5.90117 0
-68.4284 -5.90312 0
-66.7978 -5.90548 0
-65.166 -5.90579 0
-63.5401 -5.90176 0
-61.911 -5.90388 0
-60.2843 -5.90423 0
-58.6519 -5.90535 0
-57.0225 -5.90759 0
-55.3925 -5.9092 0
-53.7651 -5.90921 0
-52.1355 -5.91116 0
-50.5067 -5.90825 0
-48.8761 -5.90954 0
-47.2457 -5.90984 0
-45.6159 -5.91287 0
-43.9843 -5.91431 0
-42.3575 -5.91652 0
-40.7322 -5.91535 0
-39.1046 -5.91509 0
-37.4746 -5.91925 0
-35.8456 -5.91939 0
-34.2179 -5.91922 0
-32.5891 -5.91755 0
-30.9634 -5.91961 0
-29.333 -5.91807 0
-27.7018 -5.91694 0
-26.0714 -5.91725 0
-24.4406 -5.916 0
-22.8108 -5.91693 0
-21.1788 -5.91722 0
-19.5505 -5.91796 0
-17.9221 -5.922 0
-16.295 -5.91984 0
-14.6645 -5.91887 0
-13.0331 -5.91692 0
-11.4012 -5.91814 0
-9.77445 -5.92127 0
-8.14638 -5.92229 0
-6.51781 -5.9209 0
-4.88874 -5.91796 0
-3.2621 -5.91619 0
-1.63192 -5.91591 0
0 -5.91952 0
-1099.22 65.946 0
-1099.24 58.9076 0
-1099.25 52.082 0
-1099.21 45.5629 0
-1099.17 39.3766 0
-1099.18 33.4599 0
-1099.17 27.7546 0
-1099.1 22.3251 0
-1098.97 17.2533 0
-1098.83 12.5677 0
-1098.66 8.26828 0
-1098.48 4.34858 0
-1098.27 0.798414 0
-1098.03 -2.39657 0
-1097.75 -5.25536 0
-1097.43 -7.79942 0
-1097.08 -10.0529 0
-1096.67 -12.0399 0
-1096.22 -13.7834 0
-1095.72 -15.305 0
-1095.17 -16.6248 0
-1094.57 -17.7612 0
-1093.92 -18.7307 0
-1093.23 -19.5486 0
-1092.49 -20.228 0
-1091.72 -20.7818 0
-1090.9 -21.2205 0
-1090.05 -21.5542 0
-1089.16 -21.7913 0
-1088.24 -21.9392 0
-1087.28 -22.0055 0
-1086.29 -21.996 0
-1085.28 -21.9174 0
-1084.23 -21.7736 0
-1083.15 -21.5701 0
-1082.05 -21.3113 0
-1080.92 -21.0019 0
-1079.76 -20.6451 0
-1078.58 -20.2458 0
-1077.36 -19.8069 0
-1076.13 -19.3321 0
-1074.87 -18.8254 0
-1073.58 -18.2894 0
-1072.27 -17.7277 0
-1070.94 -17.1436 0
-1069.58 -16.5401 0
-1068.2 -15.9199 0
-1066.8 -15.2863 0
-1065.38 -14.6418 0
-1063.94 -13.9888 0
-1062.48 -13.3303 0
-1061 -12.6678 0
-1059.5 -12.0044 0
-1057.99 -11.342 0
-1056.45 -10.6818 0
-1054.9 -10.027 0
-1053.34 -9.37768 0
-1051.76 -8.73652 0
-1050.17 -8.10494 0
-1048.56 -7.48427 0
-1046.94 -6.87608 0
-1045.31 -6.28116 0
-1043.67 -5.7005 0
-1042.02 -5.13505 0
-1040.36 -4.58648 0
-1038.68 -4.0549 0
-1037 -3.54109 0
-1035.31 -3.04541 0
-1033.62 -2.56882 0
-1031.92 -2.11201 0
-1030.21 -1.67484 0
-1028.49 -1.2577 0
-1026.77 -0.861113 0
-1025.05 -0.485312 0
-1023.32 -0.130097 0
-1021.59 0.204591 0
-1019.85 0.518497 0
-1018.11 0.811459 0
-1016.37 1.08358 0
-1014.63 1.33517 0
-1012.89 1.56636 0
-1011.14 1.77725 0
-1009.4 1.96845 0
-1007.65 2.14033 0
-1005.91 2.29266 0
-1004.16 2.42582 0
-1002.42 2.54066 0
-1000.67 2.63764 0
-998.93 2.71658 0
-997.188 2.77821 0
-995.449 2.82307 0
-993.711 2.85146 0
-991.975 2.8647 0
-990.242 2.86281 0
-988.511 2.84607 0
-986.782 2.81515 0
-985.057 2.77026 0
-983.334 2.7131 0
-981.614 2.64346 0
-979.897 2.56257 0
-978.183 2.47016 0
-976.473 2.36753 0
-974.766 2.25481 0
-973.062 2.13231 0
-971.362 2.00126 0
-969.666 1.86206 0
-967.972 1.71554 0
-966.283 1.56138 0
-964.596 1.40148 0
-962.913 1.23527 0
-961.234 1.06443 0
-959.559 0.888286 0
-957.887 0.707977 0
-956.218 0.524269 0
-954.552 0.337571 0
-952.891 0.148178 0
-951.232 -0.0432922 0
-949.576 -0.236694 0
-947.924 -0.430727 0
-946.275 -0.625899 0
-944.629 -0.821183 0
-942.985 -1.0166 0
-941.345 -1.21125 0
-939.708 -1.40458 0
-938.073 -1.59686 0
-936.441 -1.78797 0
-934.811 -1.97662 0
-933.184 -2.16253 0
-931.559 -2.3465 0
-929.936 -2.5268 0
-928.316 -2.70404 0
-926.697 -2.87822 0
-925.08 -3.04856 0
-923.466 -3.21528 0
-921.852 -3.37733 0
-920.241 -3.53498 0
-918.63 -3.68856 0
-917.022 -3.83631 0
-915.415 -3.97987 0
-913.809 -4.11849 0
-912.204 -4.25238 0
-910.6 -4.3808 0
-908.998 -4.50341 0
-907.396 -4.62113 0
-905.794 -4.73312 0
-904.194 -4.83897 0
-902.593 -4.93977 0
-900.994 -5.03604 0
-899.395 -5.12575 0
-897.796 -5.21043 0
-896.198 -5.28904 0
-894.6 -5.36246 0
-893.002 -5.42999 0
-891.405 -5.49205 0
-889.806 -5.54868 0
-888.208 -5.59936 0
-886.61 -5.64572 0
-885.011 -5.68606 0
-883.413 -5.72151 0
-881.814 -5.75185 0
-880.214 -5.77677 0
-878.615 -5.79796 0
-877.014 -5.81325 0
-875.414 -5.82382 0
-873.812 -5.83027 0
-872.21 -5.83138 0
-870.608 -5.82975 0
-869.005 -5.82261 0
-867.401 -5.81176 0
-865.797 -5.79748 0
-864.191 -5.77964 0
-862.586 -5.75798 0
-860.979 -5.73323 0
-859.371 -5.70359 0
-857.763 -5.67202 0
-856.153 -5.63678 0
-854.543 -5.59964 0
-852.933 -5.55819 0
-851.321 -5.51444 0
-849.708 -5.46958 0
-848.094 -5.42142 0
-846.479 -5.37082 0
-844.864 -5.31793 0
-843.248 -5.26446 0
-841.63 -5.20798 0
-840.012 -5.14974 0
-838.393 -5.09201 0
-836.773 -5.03157 0
-835.153 -4.97077 0
-833.531 -4.90829 0
-831.908 -4.84453 0
-830.283 -4.77958 0
-828.659 -4.71544 0
-827.034 -4.64962 0
-825.408 -4.58406 0
-823.782 -4.51834 0
-822.154 -4.45115 0
-820.526 -4.38526 0
-818.897 -4.31885 0
-817.267 -4.25331 0
-815.637 -4.18846 0
-814.006 -4.12203 0
-812.373 -4.05764 0
-810.74 -3.99345 0
-809.107 -3.92922 0
-807.474 -3.86655 0
-805.84 -3.8049 0
-804.204 -3.74279 0
-802.569 -3.68313 0
-800.933 -3.62383 0
-799.296 -3.5651 0
-797.659 -3.50726 0
-796.022 -3.45099 0
-794.385 -3.39647 0
-792.746 -3.34404 0
-791.107 -3.29186 0
-789.468 -3.24168 0
-787.829 -3.19324 0
-786.19 -3.14423 0
-784.549 -3.09863 0
-782.909 -3.0542 0
-781.27 -3.01081 0
-779.628 -2.96963 0
-777.988 -2.92964 0
-776.347 -2.89137 0
-774.705 -2.8555 0
-773.064 -2.82162 0
-771.422 -2.78779 0
-769.781 -2.75615 0
-768.14 -2.72561 0
-766.498 -2.69732 0
-764.857 -2.67097 0
-763.215 -2.64513 0
-761.574 -2.62022 0
-759.933 -2.59866 0
-758.291 -2.57905 0
-756.648 -2.5607 0
-755.006 -2.54439 0
-753.365 -2.52888 0
-751.723 -2.51486 0
-750.083 -2.50261 0
-748.442 -2.4922 0
-746.8 -2.48345 0
-745.159 -2.47634 0
-743.518 -2.47067 0
-741.878 -2.46629 0
-740.237 -2.46189 0
-738.597 -2.4586 0
-736.956 -2.45826 0
-735.317 -2.45874 0
-733.678 -2.4602 0
-732.039 -2.46253 0
-730.399 -2.4659 0
-728.759 -2.47017 0
-727.121 -2.47728 0
-725.483 -2.48373 0
-723.844 -2.49158 0
-722.206 -2.50214 0
-720.567 -2.51156 0
-718.929 -2.52305 0
-717.292 -2.5331 0
-715.655 -2.54577 0
-714.019 -2.55953 0
-712.382 -2.57285 0
-710.746 -2.58755 0
-709.109 -2.60186 0
-707.472 -2.61721 0
-705.836 -2.63456 0
-704.201 -2.65142 0
-702.566 -2.66895 0
-700.931 -2.68732 0
-699.296 -2.70707 0
-697.661 -2.72575 0
-696.028 -2.7455 0
-694.394 -2.76482 0
-692.759 -2.78491 0
-691.125 -2.80437 0
-689.493 -2.8253 0
-687.86 -2.8469 0
-686.227 -2.86674 0
-684.594 -2.88808 0
-682.962 -2.91013 0
-681.33 -2.93208 0
-679.699 -2.9524 0
-678.068 -2.97299 0
-676.437 -2.99505 0
-674.806 -3.01712 0
-673.174 -3.0381 0
-671.544 -3.05901 0
-669.912 -3.07912 0
-668.282 -3.10048 0
-666.651 -3.12039 0
-665.021 -3.13986 0
-663.391 -3.15954 0
-661.762 -3.17949 0
-660.132 -3.19909 0
-658.502 -3.21688 0
-656.872 -3.23652 0
-655.243 -3.2552 0
-653.614 -3.27323 0
-651.984 -3.29145 0
-650.354 -3.31081 0
-648.725 -3.32786 0
-647.097 -3.34522 0
-645.468 -3.35975 0
-643.84 -3.37688 0
-642.211 -3.39317 0
-640.582 -3.40729 0
-638.954 -3.42088 0
-637.327 -3.43471 0
-635.699 -3.44974 0
-634.07 -3.46109 0
-632.441 -3.47353 0
-630.814 -3.48486 0
-629.185 -3.49777 0
-627.557 -3.51011 0
-625.928 -3.52102 0
-624.301 -3.53247 0
-622.672 -3.5425 0
-621.045 -3.55275 0
-619.416 -3.5631 0
-617.788 -3.57096 0
-616.16 -3.57845 0
-614.531 -3.5862 0
-612.904 -3.59266 0
-611.276 -3.59933 0
-609.649 -3.60559 0
-608.021 -3.61207 0
-606.393 -3.61818 0
-604.764 -3.62302 0
-603.136 -3.62748 0
-601.507 -3.63084 0
-599.878 -3.63541 0
-598.25 -3.63776 0
-596.621 -3.64244 0
-594.994 -3.64449 0
-593.365 -3.64525 0
-591.737 -3.64769 0
-590.11 -3.64938 0
-588.482 -3.65206 0
-586.854 -3.65214 0
-585.225 -3.65226 0
-583.596 -3.65233 0
-581.965 -3.65251 0
-580.337 -3.65302 0
-578.708 -3.65124 0
-577.078 -3.65089 0
-575.448 -3.65118 0
-573.82 -3.64956 0
-572.191 -3.64591 0
-570.562 -3.64569 0
-568.932 -3.64431 0
-567.303 -3.64161 0
-565.673 -3.63935 0
-564.041 -3.63823 0
-562.413 -3.63419 0
-560.784 -3.63244 0
-559.154 -3.63158 0
-557.524 -3.62893 0
-555.895 -3.62678 0
-554.265 -3.62263 0
-552.635 -3.6194 0
-551.004 -3.61706 0
-549.374 -3.61322 0
-547.743 -3.61002 0
-546.113 -3.60615 0
-544.482 -3.60476 0
-542.852 -3.60157 0
-541.219 -3.59854 0
-539.59 -3.59565 0
-537.959 -3.59082 0
-536.329 -3.58732 0
-534.698 -3.58269 0
-533.068 -3.57932 0
-531.437 -3.57688 0
-529.805 -3.57373 0
-528.174 -3.57041 0
-526.544 -3.5675 0
-524.913 -3.56348 0
-523.282 -3.55884 0
-521.65 -3.55606 0
-520.017 -3.5536 0
-518.388 -3.55039 0
-516.757 -3.54801 0
-515.126 -3.54604 0
-513.494 -3.54162 0
-511.863 -3.54139 0
-510.229 -3.53833 0
-508.599 -3.53484 0
-506.967 -3.53272 0
-505.336 -3.52998 0
-503.704 -3.53054 0
-502.073 -3.52744 0
-500.443 -3.52616 0
-498.812 -3.52314 0
-497.179 -3.51882 0
-495.546 -3.51965 0
-493.914 -3.51718 0
-492.283 -3.51904 0
-490.652 -3.51784 0
-489.021 -3.51714 0
-487.39 -3.51582 0
-485.757 -3.51736 0
-484.125 -3.5156 0
-482.494 -3.51427 0
-480.863 -3.51494 0
-479.229 -3.51603 0
-477.598 -3.51546 0
-475.967 -3.51711 0
-474.334 -3.5189 0
-472.702 -3.51907 0
-471.071 -3.5213 0
-469.44 -3.52308 0
-467.808 -3.5231 0
-466.175 -3.52458 0
-464.543 -3.52593 0
-462.911 -3.52967 0
-461.279 -3.5318 0
-459.647 -3.53308 0
-458.016 -3.53484 0
-456.385 -3.53899 0
-454.753 -3.54329 0
-453.121 -3.54634 0
-451.492 -3.5495 0
-449.858 -3.55193 0
-448.227 -3.55323 0
-446.596 -3.55584 0
-444.964 -3.55932 0
-443.332 -3.56387 0
-441.701 -3.56937 0
-440.069 -3.5734 0
-438.438 -3.5795 0
-436.806 -3.58229 0
-435.175 -3.58666 0
-433.545 -3.5919 0
-431.913 -3.59773 0
-430.281 -3.60114 0
-428.649 -3.60647 0
-427.016 -3.61186 0
-425.386 -3.61821 0
-423.756 -3.62116 0
-422.125 -3.62755 0
-420.493 -3.63292 0
-418.864 -3.63688 0
-417.233 -3.64134 0
-415.602 -3.64483 0
-413.972 -3.65079 0
-412.339 -3.65768 0
-410.708 -3.66399 0
-409.076 -3.66976 0
-407.444 -3.67608 0
-405.816 -3.67815 0
-404.184 -3.68344 0
-402.554 -3.68737 0
-400.924 -3.69547 0
-399.293 -3.70189 0
-397.661 -3.70721 0
-396.03 -3.71235 0
-394.4 -3.72145 0
-392.77 -3.72718 0
-391.138 -3.73267 0
-389.507 -3.73918 0
-387.877 -3.7438 0
-386.246 -3.75048 0
-384.617 -3.75915 0
-382.985 -3.76337 0
-381.357 -3.76588 0
-379.725 -3.77429 0
-378.095 -3.77904 0
-376.465 -3.78462 0
-374.836 -3.79013 0
-373.203 -3.79636 0
-371.574 -3.80244 0
-369.944 -3.80952 0
-368.313 -3.81618 0
-366.681 -3.82043 0
-365.052 -3.82793 0
-363.421 -3.83452 0
-361.792 -3.84053 0
-360.162 -3.84499 0
-358.533 -3.85187 0
-356.901 -3.85897 0
-355.272 -3.8622 0
-353.642 -3.86881 0
-352.012 -3.87346 0
-350.382 -3.87934 0
-348.752 -3.88502 0
-347.121 -3.89158 0
-345.491 -3.89598 0
-343.861 -3.89976 0
-342.23 -3.90779 0
-340.6 -3.91191 0
-338.97 -3.91487 0
-337.342 -3.92002 0
-335.71 -3.92441 0
-334.079 -3.93176 0
-332.449 -3.93546 0
-330.821 -3.9387 0
-329.19 -3.94544 0
-327.558 -3.95053 0
-325.93 -3.95683 0
-324.301 -3.96034 0
-322.671 -3.96526 0
-321.043 -3.97259 0
-319.41 -3.97545 0
-317.782 -3.97926 0
-316.154 -3.98393 0
-314.523 -3.98857 0
-312.89 -3.99266 0
-311.261 -3.99658 0
-309.63 -4.00069 0
-308 -4.00386 0
-306.37 -4.00665 0
-304.742 -4.00984 0
-303.111 -4.01603 0
-301.481 -4.01797 0
-299.852 -4.02365 0
-298.223 -4.02738 0
-296.592 -4.03106 0
-294.963 -4.03359 0
-293.332 -4.03839 0
-291.702 -4.03886 0
-290.071 -4.04473 0
-288.443 -4.04955 0
-286.813 -4.05046 0
-285.181 -4.05399 0
-283.553 -4.05688 0
-281.923 -4.06088 0
-280.291 -4.06052 0
-278.661 -4.06538 0
-277.03 -4.0697 0
-275.401 -4.07384 0
-273.772 -4.07667 0
-272.143 -4.07865 0
-270.514 -4.07941 0
-268.886 -4.08149 0
-267.256 -4.08349 0
-265.625 -4.0869 0
-263.995 -4.09008 0
-262.364 -4.09224 0
-260.736 -4.09407 0
-259.105 -4.0971 0
-257.478 -4.1018 0
-255.848 -4.10506 0
-254.218 -4.10814 0
-252.589 -4.10948 0
-250.959 -4.11145 0
-249.33 -4.1143 0
-247.7 -4.11675 0
-246.071 -4.12056 0
-244.44 -4.12056 0
-242.81 -4.12111 0
-241.18 -4.1237 0
-239.549 -4.1253 0
-237.92 -4.12666 0
-236.29 -4.12938 0
-234.658 -4.13213 0
-233.029 -4.13376 0
-231.397 -4.13406 0
-229.766 -4.13541 0
-228.136 -4.13845 0
-226.505 -4.14081 0
-224.877 -4.14292 0
-223.247 -4.14453 0
-221.618 -4.14715 0
-219.988 -4.15 0
-218.358 -4.15309 0
-216.73 -4.15334 0
-215.099 -4.15412 0
-213.471 -4.15647 0
-211.84 -4.15852 0
-210.211 -4.16156 0
-208.581 -4.16247 0
-206.949 -4.16145 0
-205.322 -4.16272 0
-203.692 -4.16534 0
-202.062 -4.16875 0
-200.432 -4.17059 0
-198.802 -4.17158 0
-197.171 -4.17608 0
-195.538 -4.17778 0
-193.909 -4.17981 0
-192.283 -4.17947 0
-190.652 -4.18062 0
-189.025 -4.18221 0
-187.392 -4.18338 0
-185.764 -4.18356 0
-184.135 -4.18493 0
-182.504 -4.18852 0
-180.875 -4.18877 0
-179.245 -4.19031 0
-177.616 -4.19359 0
-175.985 -4.19714 0
-174.355 -4.19496 0
-172.726 -4.19787 0
-171.095 -4.19673 0
-169.466 -4.19987 0
-167.837 -4.20481 0
-166.208 -4.20214 0
-164.575 -4.20595 0
-162.946 -4.20749 0
-161.317 -4.20862 0
-159.688 -4.21173 0
-158.059 -4.21346 0
-156.43 -4.21323 0
-154.799 -4.21419 0
-153.169 -4.21476 0
-151.538 -4.21678 0
-149.908 -4.21669 0
-148.281 -4.21941 0
-146.65 -4.22027 0
-145.018 -4.2195 0
-143.388 -4.22192 0
-141.757 -4.22511 0
-140.127 -4.22735 0
-138.498 -4.22837 0
-136.87 -4.22969 0
-135.241 -4.23325 0
-133.611 -4.23301 0
-131.983 -4.23484 0
-130.353 -4.23606 0
-128.723 -4.23799 0
-127.094 -4.24101 0
-125.465 -4.24213 0
-123.835 -4.24513 0
-122.205 -4.24706 0
-120.575 -4.24825 0
-118.944 -4.24659 0
-117.315 -4.24684 0
-115.687 -4.24748 0
-114.059 -4.25094 0
-112.43 -4.25188 0
-110.799 -4.25451 0
-109.171 -4.25791 0
-107.542 -4.262 0
-105.911 -4.2626 0
-104.283 -4.26357 0
-102.652 -4.26308 0
-101.023 -4.2636 0
-99.3944 -4.26522 0
-97.762 -4.26595 0
-96.1306 -4.26721 0
-94.5009 -4.26686 0
-92.8721 -4.27155 0
-91.2427 -4.27244 0
-89.6119 -4.27473 0
-87.9832 -4.27497 0
-86.3563 -4.27654 0
-84.7258 -4.27975 0
-83.0952 -4.28072 0
-81.4664 -4.28012 0
-79.8362 -4.28111 0
-78.2078 -4.2812 0
-76.5779 -4.28288 0
-74.9469 -4.28205 0
-73.3173 -4.28555 0
-71.6873 -4.28516 0
-70.0571 -4.28387 0
-68.4267 -4.28595 0
-66.7986 -4.28852 0
-65.1704 -4.28815 0
-63.5408 -4.28554 0
-61.9111 -4.28754 0
-60.2813 -4.28722 0
-58.656 -4.28751 0
-57.0269 -4.29015 0
-55.3963 -4.29292 0
-53.7646 -4.29427 0
-52.1365 -4.29315 0
-50.5051 -4.29381 0
-48.8744 -4.29193 0
-47.2463 -4.29433 0
-45.6172 -4.29604 0
-43.9902 -4.29844 0
-42.3588 -4.30058 0
-40.7301 -4.29781 0
-39.1015 -4.30088 0
-37.4755 -4.30213 0
-35.8473 -4.30427 0
-34.2171 -4.30109 0
-32.5877 -4.30123 0
-30.9594 -4.30259 0
-29.3318 -4.30023 0
-27.6997 -4.29939 0
-26.069 -4.29737 0
-24.4387 -4.29933 0
-22.8096 -4.29855 0
-21.1792 -4.30126 0
-19.5519 -4.30046 0
-17.9217 -4.30404 0
-16.2904 -4.30146 0
-14.6607 -4.30237 0
-13.0328 -4.30182 0
-11.4043 -4.30054 0
-9.77411 -4.30312 0
-8.14556 -4.30474 0
-6.5159 -4.30422 0
-4.88935 -4.30386 0
-3.25834 -4.29829 0
-1.63194 -4.30011 0
0 -4.30026 0
-1106.56 66.5229 0
-1106.17 59.2928 0
-1105.92 52.4917 0
-1105.63 45.9828 0
-1105.33 39.7541 0
-1105.04 33.7992 0
-1104.73 28.1289 0
-1104.36 22.7542 0
-1103.92 17.7094 0
-1103.43 13.0319 0
-1102.9 8.73648 0
-1102.36 4.82204 0
-1101.8 1.28028 0
-1101.21 -1.90264 0
-1100.61 -4.74498 0
-1099.99 -7.26818 0
-1099.35 -9.49638 0
-1098.68 -11.4543 0
-1097.99 -13.1658 0
-1097.26 -14.6535 0
-1096.51 -15.9381 0
-1095.73 -17.0393 0
-1094.91 -17.9735 0
-1094.07 -18.7566 0
-1093.2 -19.4025 0
-1092.29 -19.9235 0
-1091.36 -20.3307 0
-1090.4 -20.6336 0
-1089.42 -20.8408 0
-1088.41 -20.9604 0
-1087.37 -20.9989 0
-1086.31 -20.9622 0
-1085.22 -20.8567 0
-1084.11 -20.6871 0
-1082.97 -20.458 0
-1081.82 -20.1741 0
-1080.64 -19.8399 0
-1079.43 -19.4587 0
-1078.2 -19.0352 0
-1076.95 -18.5726 0
-1075.68 -18.0745 0
-1074.39 -17.5443 0
-1073.08 -16.9861 0
-1071.74 -16.4024 0
-1070.39 -15.7968 0
-1069.01 -15.1724 0
-1067.62 -14.5315 0
-1066.21 -13.878 0
-1064.77 -13.2143 0
-1063.32 -12.5425 0
-1061.86 -11.8655 0
-1060.37 -11.186 0
-1058.87 -10.5059 0
-1057.36 -9.82693 0
-1055.83 -9.15139 0
-1054.28 -8.48161 0
-1052.73 -7.81856 0
-1051.15 -7.16427 0
-1049.57 -6.51956 0
-1047.97 -5.88647 0
-1046.37 -5.26682 0
-1044.75 -4.66106 0
-1043.12 -4.07018 0
-1041.48 -3.49496 0
-1039.83 -2.93776 0
-1038.18 -2.39717 0
-1036.52 -1.87552 0
-1034.84 -1.37293 0
-1033.17 -0.890073 0
-1031.48 -0.426841 0
-1029.79 0.0160122 0
-1028.1 0.438046 0
-1026.4 0.839475 0
-1024.69 1.21972 0
-1022.98 1.57853 0
-1021.27 1.91628 0
-1019.56 2.2327 0
-1017.84 2.52806 0
-1016.12 2.80215 0
-1014.39 3.05539 0
-1012.67 3.28802 0
-1010.95 3.49989 0
-1009.22 3.69144 0
-1007.49 3.86345 0
-1005.77 4.01576 0
-1004.04 4.14893 0
-1002.31 4.26277 0
-1000.58 4.35892 0
-998.858 4.43665 0
-997.133 4.49716 0
-995.409 4.54053 0
-993.687 4.56743 0
-991.966 4.57852 0
-990.248 4.57413 0
-988.53 4.55549 0
-986.816 4.52198 0
-985.103 4.47485 0
-983.392 4.41504 0
-981.684 4.34283 0
-979.978 4.2589 0
-978.275 4.16343 0