<?xml version="1.0"?>
<VTKFile type="StructuredGrid"  version="0.1" byte_order="LittleEndian" compressor="vtkZLibDataCompressor">
  <StructuredGrid WholeExtent="0 700 0 30 0 0">
    <Piece Extent="0 700 0 30 0 0">
      <PointData Vectors="Velocity">
        <DataArray type="Float32" Name="Velocity" NumberOfComponents="3" format="ascii">
-1089.36 58.8992 0
-1089.56 52.262 0
-1089.83 45.8083 0
-1090.13 39.6595 0
-1090.41 33.8504 0
-1090.61 28.3037 0
-1090.82 22.9598 0
-1091.08 17.8976 0
-1091.34 13.2025 0
-1091.59 8.89659 0
-1091.81 4.97439 0
-1091.99 1.42589 0
-1092.13 -1.76121 0
-1092.22 -4.60439 0
-1092.25 -7.12448 0
-1092.22 -9.34502 0
-1092.11 -11.2884 0
-1091.93 -12.9789 0
-1091.68 -14.4391 0
-1091.35 -15.6906 0
-1090.95 -16.7524 0
-1090.48 -17.6424 0
-1089.95 -18.3777 0
-1089.35 -18.9733 0
-1088.7 -19.4423 0
-1087.99 -19.7971 0
-1087.23 -20.0487 0
-1086.42 -20.2074 0
-1085.56 -20.2811 0
-1084.66 -20.2784 0
-1083.73 -20.2056 0
-1082.75 -20.07 0
-1081.73 -19.8764 0
-1080.69 -19.6307 0
-1079.6 -19.3373 0
-1078.49 -19.0001 0
-1077.34 -18.6247 0
-1076.16 -18.2139 0
-1074.96 -17.7712 0
-1073.72 -17.3008 0
-1072.45 -16.8055 0
-1071.16 -16.2891 0
-1069.84 -15.7538 0
-1068.5 -15.2031 0
-1067.13 -14.6403 0
-1065.73 -14.0672 0
-1064.31 -13.4866 0
-1062.87 -12.9013 0
-1061.41 -12.3129 0
-1059.92 -11.7239 0
-1058.42 -11.137 0
-1056.89 -10.5536 0
-1055.35 -9.97563 0
-1053.79 -9.40448 0
-1052.22 -8.84216 0
-1050.62 -8.2896 0
-1049.02 -7.7488 0
-1047.39 -7.22054 0
-1045.76 -6.70638 0
-1044.11 -6.20615 0
-1042.46 -5.7222 0
-1040.79 -5.25466 0
-1039.11 -4.80432 0
-1037.42 -4.37168 0
-1035.72 -3.95731 0
-1034.02 -3.5618 0
-1032.31 -3.18548 0
-1030.59 -2.82835 0
-1028.87 -2.49091 0
-1027.14 -2.17328 0
-1025.41 -1.87546 0
-1023.68 -1.59778 0
-1021.94 -1.33973 0
-1020.2 -1.1014 0
-1018.45 -0.883136 0
-1016.71 -0.68402 0
-1014.96 -0.504192 0
-1013.21 -0.343263 0
-1011.47 -0.200864 0
-1009.72 -0.0764779 0
-1007.97 0.0295467 0
-1006.23 0.117833 0
-1004.48 0.189812 0
-1002.74 0.244863 0
-1001 0.284396 0
-999.259 0.307961 0
-997.523 0.316723 0
-995.789 0.310854 0
-994.057 0.291369 0
-992.329 0.258569 0
-990.605 0.212822 0
-988.883 0.154908 0
-987.165 0.0861937 0
-985.451 0.00552024 0
-983.741 -0.0851144 0
-982.034 -0.185002 0
-980.331 -0.294835 0
-978.633 -0.412417 0
-976.938 -0.537698 0
-975.248 -0.669602 0
-973.561 -0.809061 0
-971.879 -0.954335 0
-970.201 -1.10511 0
-968.526 -1.26047 0
-966.857 -1.41987 0
-965.19 -1.58284 0
-963.528 -1.75002 0
-961.87 -1.91899 0
-960.216 -2.0907 0
-958.566 -2.2637 0
-956.919 -2.43808 0
-955.275 -2.61243 0
-953.636 -2.7881 0
-951.999 -2.9632 0
-950.367 -3.13748 0
-948.737 -3.31107 0
-947.111 -3.48262 0
-945.487 -3.65292 0
-943.866 -3.82082 0
-942.248 -3.98639 0
-940.633 -4.14803 0
-939.02 -4.30806 0
-937.41 -4.46415 0
-935.801 -4.61824 0
-934.196 -4.76693 0
-932.592 -4.91099 0
-930.99 -5.05098 0
-929.389 -5.18699 0
-927.79 -5.31888 0
-926.193 -5.44664 0
-924.597 -5.56782 0
-923.003 -5.68465 0
-921.409 -5.79728 0
-919.816 -5.90396 0
-918.224 -6.00519 0
-916.634 -6.1007 0
-915.044 -6.19221 0
-913.454 -6.27721 0
-911.865 -6.35788 0
-910.277 -6.43228 0
-908.689 -6.50186 0
-907.1 -6.56607 0
-905.513 -6.62446 0
-903.925 -6.67835 0
-902.337 -6.72555 0
-900.749 -6.7684 0
-899.16 -6.80691 0
-897.571 -6.83992 0
-895.983 -6.8687 0
-894.393 -6.89102 0
-892.804 -6.91005 0
-891.213 -6.92364 0
-889.621 -6.93352 0
-888.029 -6.93832 0
-886.437 -6.9392 0
-884.845 -6.93591 0
-883.25 -6.92883 0
-881.656 -6.91765 0
-880.059 -6.90261 0
-878.463 -6.88423 0
-876.866 -6.86219 0
-875.268 -6.83678 0
-873.668 -6.80848 0
-872.068 -6.77735 0
-870.467 -6.74347 0
-868.864 -6.70599 0
-867.26 -6.66647 0
-865.655 -6.62604 0
-864.05 -6.58177 0
-862.443 -6.53651 0
-860.835 -6.48809 0
-859.226 -6.43892 0
-857.617 -6.38736 0
-856.006 -6.33396 0
-854.394 -6.28035 0
-852.781 -6.226 0
-851.167 -6.16999 0
-849.552 -6.11284 0
-847.935 -6.0546 0
-846.318 -5.99684 0
-844.7 -5.9381 0
-843.082 -5.87884 0
-841.462 -5.81872 0
-839.841 -5.75971 0
-838.22 -5.70092 0
-836.598 -5.64154 0
-834.975 -5.58259 0
-833.351 -5.52298 0
-831.726 -5.46406 0
-830.101 -5.4061 0
-828.475 -5.34973 0
-826.848 -5.29309 0
-825.22 -5.2374 0
-823.592 -5.18155 0
-821.963 -5.12758 0
-820.334 -5.07407 0
-818.704 -5.02215 0
-817.074 -4.97023 0
-815.443 -4.92087 0
-813.811 -4.8713 0
-812.179 -4.82435 0
-810.547 -4.77852 0
-808.914 -4.73289 0
-807.281 -4.69059 0
-805.646 -4.64815 0
-804.014 -4.6091 0
-802.379 -4.56961 0
-800.745 -4.53251 0
-799.111 -4.49656 0
-797.475 -4.46162 0
-795.839 -4.42811 0
-794.204 -4.39675 0
-792.569 -4.36676 0
-790.934 -4.33984 0
-789.299 -4.31263 0
-787.664 -4.2876 0
-786.028 -4.26407 0
-784.392 -4.24257 0
-782.758 -4.22237 0
-781.122 -4.20363 0
-779.486 -4.18643 0
-777.852 -4.17027 0
-776.217 -4.15518 0
-774.581 -4.14364 0
-772.945 -4.13299 0
-771.31 -4.12181 0
-769.676 -4.11406 0
-768.042 -4.10614 0
-766.408 -4.10079 0
-764.774 -4.09579 0
-763.139 -4.09237 0
-761.506 -4.0905 0
-759.872 -4.08903 0
-758.238 -4.08966 0
-756.605 -4.09112 0
-754.973 -4.09434 0
-753.34 -4.09746 0
-751.708 -4.10347 0
-750.077 -4.10856 0
-748.445 -4.11478 0
-746.814 -4.12274 0
-745.184 -4.1318 0
-743.553 -4.13872 0
-741.921 -4.14879 0
-740.29 -4.16008 0
-738.661 -4.17 0
-737.031 -4.18155 0
-735.401 -4.19433 0
-733.772 -4.20695 0
-732.142 -4.2192 0
-730.514 -4.23384 0
-728.885 -4.24902 0
-727.258 -4.26361 0
-725.63 -4.27746 0
-724.003 -4.29273 0
-722.377 -4.30786 0
-720.75 -4.32443 0
-719.122 -4.34023 0
-717.496 -4.35583 0
-715.871 -4.37294 0
-714.246 -4.38898 0
-712.62 -4.40545 0
-710.995 -4.42134 0
-709.371 -4.43816 0
-707.746 -4.45434 0
-706.12 -4.47043 0
-704.497 -4.48716 0
-702.872 -4.50301 0
-701.247 -4.51968 0
-699.624 -4.53706 0
-698.003 -4.55298 0
-696.379 -4.56668 0
-694.756 -4.58213 0
-693.133 -4.59719 0
-691.509 -4.61287 0
-689.887 -4.62689 0
-688.264 -4.64097 0
-686.641 -4.65472 0
-685.019 -4.66895 0
-683.398 -4.68098 0
-681.776 -4.6941 0
-680.154 -4.70755 0
-678.531 -4.72069 0
-676.909 -4.73265 0
-675.288 -4.74396 0
-673.666 -4.75424 0
-672.046 -4.76544 0
-670.426 -4.77684 0
-668.805 -4.78588 0
-667.183 -4.79474 0
-665.561 -4.8042 0
-663.94 -4.81219 0
-662.32 -4.82039 0
-660.699 -4.82889 0
-659.078 -4.83593 0
-657.457 -4.84205 0
-655.837 -4.84865 0
-654.216 -4.85599 0
-652.593 -4.85886 0
-650.972 -4.86359 0
-649.352 -4.86814 0
-647.731 -4.87365 0
-646.11 -4.87561 0
-644.489 -4.87954 0
-642.868 -4.88264 0
-641.248 -4.88556 0
-639.628 -4.88746 0
-638.008 -4.88771 0
-636.386 -4.8882 0
-634.764 -4.88848 0
-633.143 -4.88969 0
-631.523 -4.88992 0
-629.901 -4.88984 0
-628.28 -4.88791 0
-626.659 -4.88659 0
-625.037 -4.8847 0
-623.417 -4.8839 0
-621.795 -4.88086 0
-620.173 -4.87909 0
-618.551 -4.8763 0
-616.929 -4.87349 0
-615.309 -4.86885 0
-613.686 -4.86639 0
-612.063 -4.86348 0
-610.442 -4.85984 0
-608.82 -4.85505 0
-607.199 -4.84986 0
-605.577 -4.84479 0
-603.953 -4.84013 0
-602.332 -4.83472 0
-600.707 -4.82993 0
-599.085 -4.82543 0
-597.461 -4.81827 0
-595.84 -4.8134 0
-594.217 -4.80839 0
-592.593 -4.8019 0
-590.97 -4.79557 0
-589.347 -4.78947 0
-587.723 -4.782 0
-586.099 -4.77608 0
-584.475 -4.76949 0
-582.851 -4.76457 0
-581.228 -4.7572 0
-579.604 -4.75019 0
-577.98 -4.74486 0
-576.355 -4.7389 0
-574.731 -4.7327 0
-573.108 -4.72569 0
-571.484 -4.72058 0
-569.861 -4.71595 0
-568.237 -4.70954 0
-566.614 -4.703 0
-564.99 -4.69651 0
-563.366 -4.68966 0
-561.741 -4.68289 0
-560.115 -4.67651 0
-558.489 -4.67077 0
-556.866 -4.66716 0
-555.242 -4.66106 0
-553.616 -4.65745 0
-551.992 -4.65129 0
-550.365 -4.64711 0
-548.74 -4.64063 0
-547.117 -4.63488 0
-545.491 -4.63151 0
-543.866 -4.62664 0
-542.242 -4.62311 0
-540.619 -4.61972 0
-538.993 -4.61262 0
-537.368 -4.60993 0
-535.742 -4.60624 0
-534.117 -4.60393 0
-532.492 -4.60024 0
-530.868 -4.59542 0
-529.242 -4.5916 0
-527.617 -4.58676 0
-525.994 -4.58484 0
-524.369 -4.58179 0
-522.743 -4.57959 0
-521.117 -4.57502 0
-519.493 -4.57285 0
-517.867 -4.57116 0
-516.241 -4.56723 0
-514.615 -4.56766 0
-512.992 -4.56459 0
-511.367 -4.56254 0
-509.742 -4.55872 0
-508.117 -4.5581 0
-506.492 -4.55727 0
-504.865 -4.55338 0
-503.241 -4.55336 0
-501.616 -4.5536 0
-499.99 -4.55411 0
-498.364 -4.55506 0
-496.74 -4.55449 0
-495.116 -4.55282 0
-493.492 -4.55278 0
-491.867 -4.55299 0
-490.242 -4.55276 0
-488.617 -4.55486 0
-486.991 -4.55384 0
-485.365 -4.55409 0
-483.741 -4.55384 0
-482.116 -4.55635 0
-480.492 -4.55729 0
-478.869 -4.5573 0
-477.242 -4.5584 0
-475.617 -4.561 0
-473.994 -4.56103 0
-472.371 -4.56196 0
-470.745 -4.5615 0
-469.121 -4.5626 0
-467.497 -4.56358 0
-465.872 -4.56452 0
-464.247 -4.56674 0
-462.621 -4.56854 0
-460.998 -4.5723 0
-459.373 -4.57376 0
-457.749 -4.57683 0
-456.123 -4.57865 0
-454.5 -4.58249 0
-452.874 -4.58359 0
-451.25 -4.58373 0
-449.625 -4.58944 0
-448.001 -4.59404 0
-446.379 -4.59459 0
-444.754 -4.598 0
-443.132 -4.59932 0
-441.507 -4.60171 0
-439.881 -4.60266 0
-438.257 -4.60519 0
-436.633 -4.60805 0
-435.008 -4.61037 0
-433.385 -4.61402 0
-431.761 -4.61794 0
-430.137 -4.62023 0
-428.513 -4.62126 0
-426.891 -4.62491 0
-425.268 -4.62728 0
-423.644 -4.62764 0
-422.019 -4.63176 0
-420.397 -4.63198 0
-418.772 -4.63472 0
-417.148 -4.63822 0
-415.526 -4.63911 0
-413.901 -4.64519 0
-412.28 -4.64569 0
-410.654 -4.64682 0
-409.031 -4.65092 0
-407.407 -4.65137 0
-405.784 -4.65246 0
-404.158 -4.65593 0
-402.536 -4.65714 0
-400.913 -4.66135 0
-399.291 -4.66121 0
-397.668 -4.66294 0
-396.045 -4.66761 0
-394.421 -4.66882 0
-392.797 -4.67097 0
-391.175 -4.67308 0
-389.552 -4.67386 0
-387.929 -4.67393 0
-386.306 -4.67522 0
-384.682 -4.67707 0
-383.057 -4.67804 0
-381.433 -4.67925 0
-379.811 -4.68154 0
-378.187 -4.68369 0
-376.563 -4.68544 0
-374.939 -4.68659 0
-373.318 -4.68707 0
-371.693 -4.68647 0
-370.07 -4.68714 0
-368.447 -4.68918 0
-366.823 -4.69144 0
-365.199 -4.69358 0
-363.576 -4.69152 0
-361.952 -4.69471 0
-360.328 -4.69433 0
-358.705 -4.69464 0
-357.083 -4.69329 0
-355.459 -4.69473 0
-353.836 -4.6964 0
-352.213 -4.69785 0
-350.589 -4.6986 0
-348.966 -4.70196 0
-347.343 -4.70158 0
-345.72 -4.7041 0
-344.097 -4.70187 0
-342.473 -4.70224 0
-340.851 -4.70468 0
-339.228 -4.70614 0
-337.604 -4.70415 0
-335.982 -4.70413 0
-334.359 -4.70548 0
-332.735 -4.7055 0
-331.111 -4.70342 0
-329.487 -4.70317 0
-327.864 -4.70132 0
-326.241 -4.70294 0
-324.617 -4.70602 0
-322.994 -4.70541 0
-321.372 -4.70272 0
-319.748 -4.70342 0
-318.126 -4.70219 0
-316.503 -4.70095 0
-314.88 -4.70392 0
-313.256 -4.70342 0
-311.634 -4.70433 0
-310.009 -4.70581 0
-308.387 -4.70179 0
-306.764 -4.70293 0
-305.142 -4.70237 0
-303.516 -4.70291 0
-301.893 -4.7004 0
-300.27 -4.70129 0
-298.645 -4.70009 0
-297.022 -4.7008 0
-295.399 -4.69704 0
-293.777 -4.69834 0
-292.152 -4.7001 0
-290.527 -4.6998 0
-288.905 -4.70091 0
-287.282 -4.69845 0
-285.66 -4.69851 0
-284.035 -4.69907 0
-282.412 -4.69911 0
-280.788 -4.6956 0
-279.164 -4.6956 0
-277.543 -4.69696 0
-275.916 -4.69305 0
-274.294 -4.69394 0
-272.673 -4.69531 0
-271.048 -4.69516 0
-269.426 -4.69348 0
-267.803 -4.69395 0
-266.178 -4.69132 0
-264.556 -4.69055 0
-262.931 -4.69095 0
-261.307 -4.69038 0
-259.684 -4.69066 0
-258.058 -4.69092 0
-256.435 -4.69121 0
-254.813 -4.69128 0
-253.191 -4.68628 0
-251.568 -4.68998 0
-249.943 -4.69107 0
-248.316 -4.68986 0
-246.695 -4.69099 0
-245.072 -4.69097 0
-243.45 -4.69021 0
-241.827 -4.68849 0
-240.203 -4.69074 0
-238.579 -4.68925 0
-236.954 -4.68836 0
-235.335 -4.68773 0
-233.711 -4.68913 0
-232.087 -4.69105 0
-230.463 -4.68819 0
-228.842 -4.68638 0
-227.216 -4.68687 0
-225.593 -4.68929 0
-223.967 -4.68909 0
-222.345 -4.68845 0
-220.72 -4.68513 0
-219.099 -4.68803 0
-217.476 -4.68614 0
-215.85 -4.68747 0
-214.229 -4.68614 0
-212.607 -4.68573 0
-210.984 -4.68605 0
-209.362 -4.68707 0
-207.738 -4.68683 0
-206.112 -4.68852 0
-204.488 -4.68892 0
-202.864 -4.69062 0
-201.241 -4.68861 0
-199.618 -4.69048 0
-197.994 -4.68985 0
-196.372 -4.68954 0
-194.748 -4.68997 0
-193.122 -4.69105 0
-191.503 -4.69091 0
-189.878 -4.68895 0
-188.256 -4.69 0
-186.636 -4.68921 0
-185.014 -4.68775 0
-183.39 -4.69013 0
-181.767 -4.69082 0
-180.142 -4.68923 0
-178.515 -4.68986 0
-176.894 -4.69012 0
-175.272 -4.68846 0
-173.648 -4.68725 0
-172.025 -4.69165 0
-170.403 -4.69013 0
-168.781 -4.68727 0
-167.154 -4.68873 0
-165.533 -4.6886 0
-163.911 -4.6889 0
-162.286 -4.6891 0
-160.665 -4.689 0
-159.044 -4.68991 0
-157.42 -4.69031 0
-155.798 -4.6904 0
-154.173 -4.69147 0
-152.548 -4.68939 0
-150.926 -4.68659 0
-149.299 -4.68644 0
-147.678 -4.68884 0
-146.055 -4.68963 0
-144.431 -4.69151 0
-142.81 -4.68908 0
-141.186 -4.69087 0
-139.563 -4.6914 0
-137.937 -4.69225 0
-136.315 -4.69176 0
-134.692 -4.6923 0
-133.069 -4.69123 0
-131.444 -4.69286 0
-129.822 -4.69365 0
-128.201 -4.69611 0
-126.578 -4.69349 0
-124.955 -4.69382 0
-123.333 -4.69415 0
-121.708 -4.69462 0
-120.085 -4.69456 0
-118.464 -4.69345 0
-116.841 -4.69519 0
-115.216 -4.69574 0
-113.594 -4.69722 0
-111.972 -4.69657 0
-110.349 -4.69745 0
-108.726 -4.6958 0
-107.103 -4.69641 0
-105.479 -4.6949 0
-103.856 -4.69431 0
-102.233 -4.69615 0
-100.61 -4.69912 0
-98.9857 -4.70237 0
-97.3608 -4.70072 0
-95.7409 -4.70113 0
-94.1171 -4.70167 0
-92.4949 -4.70354 0
-90.8734 -4.70089 0
-89.2502 -4.70087 0
-87.6252 -4.70165 0
-86.0021 -4.70083 0
-84.3813 -4.70231 0
-82.7581 -4.7017 0
-81.1343 -4.70124 0
-79.5132 -4.70221 0
-77.8914 -4.70023 0
-76.2701 -4.69924 0
-74.6462 -4.69822 0
-73.0232 -4.69885 0
-71.3988 -4.69765 0
-69.7769 -4.70079 0
-68.1537 -4.69811 0
-66.533 -4.69941 0
-64.9103 -4.70305 0
-63.2862 -4.70343 0
-61.6624 -4.70063 0
-60.0377 -4.70222 0
-58.4155 -4.70149 0
-56.794 -4.70278 0
-55.1709 -4.70639 0
-53.546 -4.70444 0
-51.9251 -4.70645 0
-50.3024 -4.70544 0
-48.6818 -4.70305 0
-47.0591 -4.70211 0
-45.438 -4.7027 0
-43.8169 -4.70133 0
-42.1914 -4.70367 0
-40.5683 -4.7029 0
-38.9442 -4.7022 0
-37.3236 -4.69956 0
-35.6991 -4.70089 0
-34.0796 -4.70299 0
-32.4551 -4.70326 0
-30.8315 -4.70136 0
-29.2068 -4.70214 0
-27.5837 -4.70223 0
-25.9605 -4.7033 0
-24.3379 -4.70233 0
-22.718 -4.70383 0
-21.0967 -4.70237 0
-19.4745 -4.70325 0
-17.8496 -4.70368 0
-16.2239 -4.69993 0
-14.604 -4.70152 0
-12.9812 -4.70437 0
-11.3573 -4.70573 0
-9.73481 -4.70477 0
-8.11101 -4.70343 0
-6.49143 -4.70189 0
-4.86838 -4.70086 0
-3.2439 -4.70034 0
-1.6219 -4.69871 0
0 -4.70153 0
-1096 59.143 0
-1096.05 52.4478 0
-1096.07 45.9691 0
-1096.06 39.8052 0
-1096.04 33.9827 0
-1096.07 28.4282 0
-1096.07 23.0793 0
-1096.01 18.012 0
-1095.89 13.312 0
-1095.75 9.00449 0
-1095.59 5.08644 0
-1095.41 1.54994 0
-1095.2 -1.61682 0
-1094.95 -4.43031 0
-1094.66 -6.91203 0
-1094.34 -9.08613 0
-1093.96 -10.9783 0
-1093.53 -12.6141 0
-1093.06 -14.0175 0
-1092.53 -15.2116 0
-1091.94 -16.2168 0
-1091.31 -17.0517 0
-1090.63 -17.7339 0
-1089.89 -18.2788 0
-1089.12 -18.6995 0
-1088.3 -19.0086 0
-1087.44 -19.2167 0
-1086.54 -19.3342 0
-1085.6 -19.369 0
-1084.63 -19.3292 0
-1083.63 -19.2213 0
-1082.59 -19.0516 0
-1081.52 -18.8255 0
-1080.42 -18.5482 0
-1079.29 -18.2243 0
-1078.14 -17.8579 0
-1076.95 -17.4531 0
-1075.74 -17.014 0
-1074.51 -16.544 0
-1073.24 -16.0466 0
-1071.96 -15.5253 0
-1070.64 -14.9833 0
-1069.31 -14.4235 0
-1067.95 -13.8485 0
-1066.57 -13.2622 0
-1065.16 -12.6663 0
-1063.74 -12.064 0
-1062.29 -11.4577 0
-1060.83 -10.8491 0
-1059.34 -10.2411 0
-1057.84 -9.63555 0
-1056.32 -9.03405 0
-1054.79 -8.43931 0
-1053.24 -7.85226 0
-1051.67 -7.27468 0
-1050.09 -6.70799 0
-1048.49 -6.1535 0
-1046.88 -5.61274 0
-1045.26 -5.08635 0
-1043.63 -4.57522 0
-1041.99 -4.08046 0
-1040.34 -3.6033 0
-1038.68 -3.14397 0
-1037.01 -2.70298 0
-1035.33 -2.28112 0
-1033.64 -1.87884 0
-1031.95 -1.4963 0
-1030.25 -1.13343 0
-1028.55 -0.791032 0
-1026.84 -0.469203 0
-1025.13 -0.167627 0
-1023.41 0.11344 0
-1021.7 0.37411 0
-1019.97 0.614534 0
-1018.25 0.834895 0
-1016.52 1.03536 0
-1014.8 1.21602 0
-1013.07 1.37779 0
-1011.34 1.52029 0
-1009.61 1.64437 0
-1007.88 1.74959 0
-1006.15 1.83708 0
-1004.42 1.90801 0
-1002.7 1.96131 0
-1000.97 1.99881 0
-999.245 2.02052 0
-997.523 2.02667 0
-995.803 2.01861 0
-994.085 1.99618 0
-992.37 1.9607 0
-990.658 1.9119 0
-988.947 1.85117 0
-987.241 1.77853 0
-985.537 1.69466 0
-983.836 1.60074 0
-982.139 1.49675 0
-980.445 1.38373 0
-978.754 1.2627 0
-977.067 1.13391 0
-975.383 0.99737 0
-973.703 0.854633 0
-972.026 0.705682 0
-970.353 0.55145 0
-968.683 0.391967 0
-967.016 0.228851 0
-965.354 0.0616681 0
-963.695 -0.108317 0
-962.039 -0.281623 0
-960.386 -0.456426 0
-958.737 -0.632855 0
-957.091 -0.810516 0
-955.449 -0.988395 0
-953.809 -1.16712 0
-952.172 -1.34521 0
-950.539 -1.52263 0
-948.908 -1.69913 0
-947.28 -1.87357 0
-945.654 -2.04654 0
-944.031 -2.21731 0
-942.41 -2.38445 0
-940.792 -2.54959 0
-939.176 -2.71142 0
-937.563 -2.86974 0
-935.951 -3.0254 0
-934.34 -3.1762 0
-932.732 -3.32231 0
-931.125 -3.46378 0
-929.521 -3.60176 0
-927.917 -3.73489 0
-926.315 -3.86321 0
-924.715 -3.98667 0
-923.115 -4.10456 0
-921.516 -4.21788 0
-919.919 -4.32557 0
-918.322 -4.42774 0
-916.726 -4.52431 0
-915.131 -4.61571 0
-913.536 -4.70185 0
-911.942 -4.783 0
-910.348 -4.85746 0
-908.754 -4.92723 0
-907.161 -4.9917 0
-905.568 -5.05028 0
-903.974 -5.10346 0
-902.381 -5.15083 0
-900.788 -5.19384 0
-899.195 -5.23189 0
-897.602 -5.26473 0
-896.008 -5.29298 0
-894.414 -5.31544 0
-892.819 -5.33319 0
-891.224 -5.34653 0
-889.628 -5.35546 0
-888.032 -5.36012 0
-886.436 -5.36031 0
-884.839 -5.35691 0
-883.241 -5.34894 0
-881.642 -5.33645 0
-880.043 -5.32052 0
-878.443 -5.30127 0
-876.842 -5.27881 0
-875.241 -5.25227 0
-873.638 -5.22287 0
-872.035 -5.19112 0
-870.432 -5.15607 0
-868.827 -5.11839 0
-867.221 -5.07767 0
-865.614 -5.036 0
-864.005 -4.99065 0
-862.396 -4.94435 0
-860.787 -4.89532 0
-859.176 -4.84482 0
-857.565 -4.79282 0
-855.953 -4.73848 0
-854.34 -4.68378 0
-852.726 -4.62803 0
-851.111 -4.57072 0
-849.495 -4.51307 0
-847.878 -4.45399 0
-846.261 -4.39538 0
-844.642 -4.33576 0
-843.022 -4.27499 0
-841.402 -4.21509 0
-839.782 -4.15496 0
-838.161 -4.0951 0
-836.539 -4.03546 0
-834.916 -3.97517 0
-833.292 -3.91573 0
-831.668 -3.85582 0
-830.044 -3.79779 0
-828.418 -3.73991 0
-826.792 -3.68217 0
-825.166 -3.62579 0
-823.538 -3.56961 0
-821.91 -3.51497 0
-820.282 -3.46121 0
-818.653 -3.40822 0
-817.024 -3.35616 0
-815.393 -3.30566 0
-813.763 -3.25703 0
-812.132 -3.20871 0
-810.502 -3.16265 0
-808.87 -3.11675 0
-807.238 -3.07326 0
-805.606 -3.03203 0
-803.973 -2.99193 0
-802.341 -2.95238 0
-800.708 -2.91502 0
-799.074 -2.87811 0
-797.441 -2.84274 0
-795.807 -2.8099 0
-794.174 -2.77918 0
-792.541 -2.7493 0
-790.907 -2.72156 0
-789.273 -2.69441 0
-787.639 -2.66953 0
-786.006 -2.64531 0
-784.372 -2.62393 0
-782.738 -2.60375 0
-781.104 -2.58499 0
-779.47 -2.56813 0
-777.837 -2.55229 0
-776.203 -2.53752 0
-774.569 -2.52532 0
-772.935 -2.51492 0
-771.301 -2.50527 0
-769.668 -2.49643 0
-768.036 -2.48905 0
-766.402 -2.48361 0
-764.769 -2.47878 0
-763.137 -2.47457 0
-761.503 -2.47391 0
-759.872 -2.47268 0
-758.24 -2.47434 0
-756.608 -2.47533 0
-754.976 -2.47844 0
-753.345 -2.48263 0
-751.714 -2.48764 0
-750.082 -2.49376 0
-748.452 -2.49975 0
-746.822 -2.50768 0
-745.191 -2.51606 0
-743.56 -2.5251 0
-741.931 -2.53511 0
-740.301 -2.54573 0
-738.672 -2.55627 0
-737.043 -2.56876 0
-735.414 -2.58064 0
-733.785 -2.59451 0
-732.156 -2.60736 0
-730.528 -2.62197 0
-728.9 -2.63699 0
-727.273 -2.65163 0
-725.645 -2.66651 0
-724.019 -2.68235 0
-722.392 -2.69834 0
-720.765 -2.71417 0
-719.139 -2.73047 0
-717.513 -2.74587 0
-715.888 -2.76292 0
-714.262 -2.77976 0
-712.637 -2.79672 0
-711.011 -2.81313 0
-709.386 -2.82965 0
-707.761 -2.84583 0
-706.137 -2.86262 0
-704.513 -2.87877 0
-702.889 -2.8953 0
-701.265 -2.9121 0
-699.641 -2.92938 0
-698.017 -2.94521 0
-696.394 -2.95979 0
-694.77 -2.9751 0
-693.147 -2.99057 0
-691.525 -3.00655 0
-689.901 -3.02024 0
-688.277 -3.03444 0
-686.655 -3.0487 0
-685.032 -3.06355 0
-683.41 -3.07592 0
-681.788 -3.08915 0
-680.167 -3.10237 0
-678.545 -3.11547 0
-676.922 -3.12606 0
-675.299 -3.13856 0
-673.678 -3.14962 0
-672.057 -3.16091 0
-670.435 -3.17146 0
-668.813 -3.18094 0
-667.191 -3.18932 0
-665.57 -3.19876 0
-663.948 -3.2067 0
-662.327 -3.21601 0
-660.706 -3.22399 0
-659.084 -3.23068 0
-657.463 -3.23719 0
-655.841 -3.24482 0
-654.22 -3.25019 0
-652.599 -3.25423 0
-650.977 -3.25953 0
-649.356 -3.26373 0
-647.734 -3.26883 0
-646.113 -3.27034 0
-644.491 -3.27488 0
-642.871 -3.27784 0
-641.25 -3.28033 0
-639.629 -3.28255 0
-638.008 -3.28277 0
-636.386 -3.28295 0
-634.765 -3.28347 0
-633.144 -3.28439 0
-631.522 -3.28485 0
-629.901 -3.28402 0
-628.279 -3.28197 0
-626.658 -3.28052 0
-625.036 -3.27976 0
-623.414 -3.27797 0
-621.793 -3.276 0
-620.171 -3.27392 0
-618.549 -3.27079 0
-616.927 -3.26863 0
-615.305 -3.26379 0
-613.683 -3.26067 0
-612.06 -3.25691 0
-610.438 -3.25387 0
-608.816 -3.24935 0
-607.193 -3.24464 0
-605.571 -3.23786 0
-603.948 -3.23347 0
-602.326 -3.22775 0
-600.703 -3.22377 0
-599.079 -3.21749 0
-597.457 -3.21211 0
-595.833 -3.20626 0
-594.211 -3.20107 0
-592.587 -3.19569 0
-590.965 -3.18829 0
-589.34 -3.18189 0
-587.716 -3.17548 0
-586.092 -3.16868 0
-584.469 -3.16304 0
-582.845 -3.15591 0
-581.221 -3.14879 0
-579.597 -3.14277 0
-577.974 -3.13783 0
-576.35 -3.12986 0
-574.725 -3.12402 0
-573.102 -3.11917 0
-571.478 -3.11294 0
-569.854 -3.10704 0
-568.231 -3.10182 0
-566.606 -3.09491 0
-564.982 -3.08857 0
-563.357 -3.08176 0
-561.733 -3.07397 0
-560.109 -3.06832 0
-558.485 -3.06226 0
-556.861 -3.05944 0
-555.236 -3.05316 0
-553.611 -3.04743 0
-551.986 -3.04315 0
-550.361 -3.03672 0
-548.736 -3.03228 0
-547.111 -3.02676 0
-545.487 -3.02236 0
-543.862 -3.01796 0
-542.238 -3.0146 0
-540.613 -3.01049 0
-538.988 -3.00413 0
-537.364 -3.00087 0
-535.739 -2.99842 0
-534.113 -2.99413 0
-532.489 -2.99085 0
-530.864 -2.98613 0
-529.239 -2.9824 0
-527.614 -2.97928 0
-525.989 -2.97592 0
-524.365 -2.97262 0
-522.74 -2.9698 0
-521.115 -2.96609 0
-519.489 -2.96475 0
-517.864 -2.96087 0
-516.239 -2.95963 0
-514.614 -2.9581 0
-512.99 -2.95536 0
-511.365 -2.95286 0
-509.74 -2.95078 0
-508.115 -2.94948 0
-506.49 -2.9485 0
-504.863 -2.94656 0
-503.239 -2.94492 0
-501.615 -2.94445 0
-499.99 -2.94446 0
-498.364 -2.94536 0
-496.74 -2.94523 0
-495.115 -2.94511 0
-493.49 -2.94481 0
-491.865 -2.94467 0
-490.242 -2.94492 0
-488.617 -2.94491 0
-486.991 -2.94462 0
-485.366 -2.94493 0
-483.742 -2.94604 0
-482.118 -2.94827 0
-480.493 -2.94945 0
-478.868 -2.94912 0
-477.243 -2.95037 0
-475.618 -2.95125 0
-473.994 -2.95277 0
-472.369 -2.95305 0
-470.745 -2.95431 0
-469.121 -2.95498 0
-467.496 -2.95719 0
-465.873 -2.95627 0
-464.249 -2.95791 0
-462.624 -2.96004 0
-460.999 -2.96311 0
-459.377 -2.96601 0
-457.751 -2.9684 0
-456.127 -2.9708 0
-454.502 -2.97265 0
-452.877 -2.97537 0
-451.253 -2.9772 0
-449.63 -2.98048 0
-448.006 -2.98458 0
-446.381 -2.98818 0
-444.757 -2.98945 0
-443.133 -2.99116 0
-441.51 -2.9931 0
-439.885 -2.99435 0
-438.261 -2.99769 0
-436.636 -3.00017 0
-435.011 -3.00296 0
-433.389 -3.0056 0
-431.764 -3.00933 0
-430.14 -3.01163 0
-428.517 -3.01517 0
-426.893 -3.01703 0
-425.269 -3.01951 0
-423.646 -3.02112 0
-422.022 -3.02381 0
-420.398 -3.02429 0
-418.775 -3.02633 0
-417.15 -3.02946 0
-415.527 -3.03265 0
-413.904 -3.03647 0
-412.28 -3.03898 0
-410.657 -3.03964 0
-409.034 -3.04245 0
-407.409 -3.04341 0
-405.785 -3.04487 0
-404.161 -3.04884 0
-402.539 -3.0507 0
-400.917 -3.05488 0
-399.293 -3.05475 0
-397.669 -3.05688 0
-396.047 -3.06057 0
-394.424 -3.06219 0
-392.801 -3.06471 0
-391.177 -3.06514 0
-389.553 -3.06682 0
-387.93 -3.06835 0
-386.306 -3.06826 0
-384.683 -3.07056 0
-383.061 -3.06975 0
-381.436 -3.07268 0
-379.813 -3.07373 0
-378.188 -3.07503 0
-376.565 -3.07792 0
-374.941 -3.0791 0
-373.317 -3.07983 0
-371.694 -3.07912 0
-370.072 -3.08116 0
-368.449 -3.08149 0
-366.824 -3.08362 0
-365.2 -3.08444 0
-363.576 -3.08468 0
-361.953 -3.08731 0
-360.33 -3.08738 0
-358.706 -3.08819 0
-357.083 -3.08799 0
-355.46 -3.08771 0
-353.838 -3.08981 0
-352.214 -3.09081 0
-350.591 -3.09167 0
-348.968 -3.09406 0
-347.344 -3.09579 0
-345.72 -3.09484 0
-344.098 -3.09525 0
-342.475 -3.09555 0
-340.852 -3.09771 0
-339.227 -3.09578 0
-337.604 -3.09702 0
-335.981 -3.09711 0
-334.358 -3.09821 0
-332.734 -3.09781 0
-331.111 -3.09737 0
-329.487 -3.09646 0
-327.865 -3.09645 0
-326.241 -3.09628 0
-324.619 -3.09763 0
-322.995 -3.09688 0
-321.371 -3.09652 0
-319.749 -3.09652 0
-318.125 -3.09532 0
-316.503 -3.09606 0
-314.879 -3.09595 0
-313.256 -3.09681 0
-311.634 -3.09537 0
-310.009 -3.09668 0
-308.386 -3.09593 0
-306.763 -3.09584 0
-305.14 -3.09546 0
-303.518 -3.09337 0
-301.893 -3.09528 0
-300.269 -3.09397 0
-298.644 -3.09339 0
-297.022 -3.09367 0
-295.4 -3.09171 0
-293.777 -3.09041 0
-292.153 -3.0933 0
-290.529 -3.09204 0
-288.906 -3.09323 0
-287.282 -3.0923 0
-285.658 -3.09183 0
-284.035 -3.09094 0
-282.411 -3.09023 0
-280.787 -3.08945 0
-279.164 -3.08864 0
-277.54 -3.09038 0
-275.917 -3.08664 0
-274.294 -3.08864 0
-272.671 -3.08929 0
-271.047 -3.08715 0
-269.425 -3.08623 0
-267.802 -3.08495 0
-266.178 -3.08467 0
-264.554 -3.08409 0
-262.932 -3.08399 0
-261.308 -3.08361 0
-259.683 -3.08224 0
-258.06 -3.08448 0
-256.435 -3.08406 0
-254.812 -3.08366 0
-253.19 -3.08197 0
-251.568 -3.08161 0
-249.943 -3.08362 0
-248.318 -3.08143 0
-246.694 -3.0843 0
-245.071 -3.08359 0
-243.448 -3.08349 0
-241.827 -3.08188 0
-240.201 -3.08213 0
-238.577 -3.08253 0
-236.955 -3.08196 0
-235.333 -3.08179 0
-233.712 -3.08331 0
-232.088 -3.08298 0
-230.462 -3.08124 0
-228.837 -3.07952 0
-227.215 -3.0799 0
-225.592 -3.08077 0
-223.968 -3.08089 0
-222.344 -3.0813 0
-220.721 -3.08114 0
-219.098 -3.08117 0
-217.476 -3.07756 0
-215.852 -3.08069 0
-214.228 -3.07972 0
-212.605 -3.07997 0
-210.983 -3.07994 0
-209.358 -3.08119 0
-207.735 -3.07934 0
-206.113 -3.08008 0
-204.489 -3.07981 0
-202.864 -3.0831 0
-201.242 -3.08218 0
-199.619 -3.08171 0
-197.996 -3.08361 0
-196.373 -3.08152 0
-194.749 -3.08228 0
-193.125 -3.08224 0
-191.502 -3.08383 0
-189.88 -3.08296 0
-188.256 -3.08273 0
-186.635 -3.08256 0
-185.011 -3.0814 0
-183.389 -3.08227 0
-181.764 -3.0831 0
-180.141 -3.08093 0
-178.517 -3.08259 0
-176.894 -3.08182 0
-175.272 -3.08133 0
-173.65 -3.08066 0
-172.027 -3.08365 0
-170.401 -3.08254 0
-168.778 -3.08088 0
-167.157 -3.07976 0
-165.533 -3.08023 0
-163.91 -3.08264 0
-162.286 -3.08149 0
-160.664 -3.08379 0
-159.042 -3.0846 0
-157.42 -3.08331 0
-155.794 -3.08398 0
-154.17 -3.08369 0
-152.546 -3.08121 0
-150.923 -3.08196 0
-149.301 -3.0801 0
-147.679 -3.08268 0
-146.056 -3.08289 0
-144.435 -3.08282 0
-142.81 -3.08228 0
-141.185 -3.08372 0
-139.562 -3.0828 0
-137.939 -3.08303 0
-136.316 -3.08523 0
-134.693 -3.08312 0
-133.07 -3.08328 0
-131.445 -3.08544 0
-129.823 -3.08637 0
-128.199 -3.08873 0
-126.578 -3.08799 0
-124.955 -3.08789 0
-123.332 -3.08561 0
-121.707 -3.08667 0
-120.086 -3.08821 0
-118.464 -3.08701 0
-116.841 -3.08735 0
-115.219 -3.08803 0
-113.596 -3.08995 0
-111.972 -3.09048 0
-110.349 -3.08871 0
-108.727 -3.08944 0
-107.103 -3.08765 0
-105.479 -3.08738 0
-103.855 -3.08801 0
-102.234 -3.08942 0
-100.611 -3.09237 0
-98.9857 -3.09309 0
-97.3624 -3.095 0
-95.7407 -3.09365 0
-94.1184 -3.09331 0
-92.4957 -3.09668 0
-90.8731 -3.095 0
-89.2501 -3.09197 0
-87.6269 -3.09516 0
-86.0038 -3.0941 0
-84.38 -3.09473 0
-82.7572 -3.0959 0
-81.1364 -3.09521 0
-79.5137 -3.09574 0
-77.8905 -3.09499 0
-76.2682 -3.09525 0
-74.6466 -3.09284 0
-73.0242 -3.09176 0
-71.4007 -3.09191 0
-69.7762 -3.09298 0
-68.1546 -3.09408 0
-66.5322 -3.09601 0
-64.9096 -3.09387 0
-63.2848 -3.09595 0
-61.662 -3.09489 0
-60.0394 -3.09472 0
-58.4164 -3.09616 0
-56.7953 -3.0975 0
-55.1705 -3.0992 0
-53.5486 -3.09941 0
-51.9262 -3.09822 0
-50.3034 -3.09825 0
-48.6828 -3.09822 0
-47.0606 -3.0962 0
-45.4378 -3.09786 0
-43.8148 -3.09602 0
-42.1909 -3.09677 0
-40.5675 -3.09745 0
-38.9449 -3.09521 0
-37.321 -3.0944 0
-35.6997 -3.09637 0
-34.0775 -3.09602 0
-32.4534 -3.09533 0
-30.8306 -3.09565 0
-29.207 -3.09452 0
-27.5832 -3.09505 0
-25.9619 -3.0966 0
-24.3403 -3.09721 0
-22.7165 -3.09797 0
-21.0961 -3.09505 0
-19.4727 -3.09678 0
-17.8497 -3.09622 0
-16.2269 -3.09555 0
-14.6042 -3.09601 0
-12.9815 -3.09706 0
-11.3584 -3.09705 0
-9.73516 -3.09845 0
-8.11302 -3.09672 0
-6.48986 -3.09488 0
-4.86695 -3.09316 0
-3.24487 -3.09507 0
-1.62349 -3.09381 0
0 -3.0948 0
-1102.99 59.7592 0
-1102.62 52.8617 0
-1102.39 46.4065 0
-1102.11 40.2509 0
-1101.84 34.3779 0
-1101.56 28.7807 0
-1101.27 23.4714 0
-1100.91 18.4601 0
-1100.47 13.7834 0
-1099.98 9.48093 0
-1099.46 5.56485 0
-1098.92 2.03228 0
-1098.35 -1.12669 0
-1097.77 -3.928 0
-1097.16 -6.39239 0
-1096.53 -8.54392 0
-1095.88 -10.4088 0
-1095.2 -12.013 0
-1094.49 -13.3819 0
-1093.76 -14.5393 0
-1092.98 -15.5069 0
-1092.18 -16.3039 0
-1091.34 -16.9487 0
-1090.47 -17.4566 0
-1089.57 -17.8416 0
-1088.64 -18.1162 0
-1087.68 -18.2913 0
-1086.69 -18.3768 0
-1085.67 -18.3808 0
-1084.62 -18.3113 0
-1083.55 -18.1746 0
-1082.45 -17.9765 0
-1081.32 -17.7231 0
-1080.17 -17.4192 0
-1079 -17.0692 0
-1077.8 -16.677 0
-1076.58 -16.2474 0
-1075.34 -15.7837 0
-1074.07 -15.2898 0
-1072.78 -14.7686 0
-1071.47 -14.2246 0
-1070.14 -13.6599 0
-1068.79 -13.0783 0
-1067.41 -12.4821 0
-1066.02 -11.875 0
-1064.61 -11.259 0
-1063.17 -10.637 0
-1061.73 -10.0121 0
-1060.26 -9.38513 0
-1058.77 -8.75973 0
-1057.27 -8.13768 0
-1055.76 -7.52034 0
-1054.23 -6.91013 0
-1052.68 -6.30887 0
-1051.13 -5.71749 0
-1049.55 -5.13761 0
-1047.97 -4.57073 0
-1046.38 -4.01824 0
-1044.77 -3.4809 0
-1043.15 -2.9593 0
-1041.53 -2.45512 0
-1039.89 -1.96871 0
-1038.25 -1.50099 0
-1036.59 -1.05212 0
-1034.93 -0.623313 0
-1033.27 -0.214537 0
-1031.59 0.174213 0
-1029.91 0.542359 0
-1028.23 0.889475 0
-1026.54 1.21562 0
-1024.85 1.52124 0
-1023.15 1.80536 0
-1021.45 2.06887 0
-1019.75 2.31161 0
-1018.04 2.53423 0
-1016.34 2.73622 0
-1014.63 2.91808 0
-1012.92 3.08063 0
-1011.21 3.22358 0
-1009.49 3.34775 0
-1007.78 3.45273 0
-1006.07 3.53982 0
-1004.36 3.60987 0
-1002.65 3.6626 0
-1000.94 3.69835 0
-999.229 3.71861 0
-997.521 3.72311 0
-995.815 3.71331 0
-994.111 3.68865 0
-992.408 3.65063 0
-990.708 3.59962 0
-989.009 3.5362 0
-987.313 3.46058 0
-985.62 3.37443 0
-983.929 3.27727 0
-982.241 3.17082 0
-980.555 3.05473 0
-978.872 2.9305 0
-977.192 2.79816 0
-975.516 2.6586 0