<?xml version="1.0"?>
<VTKFile type="StructuredGrid"  version="0.1" byte_order="LittleEndian" compressor="vtkZLibDataCompressor">
  <StructuredGrid WholeExtent="0 700 0 30 0 0">
    <Piece Extent="0 700 0 30 0 0">
      <PointData Vectors="Velocity">
        <DataArray type="Float32" Name="Velocity" NumberOfComponents="3" format="ascii">
-1092.97 72.0482 0
-1093.14 64.902 0
-1093.36 57.9346 0
-1093.63 51.2615 0
-1093.88 44.916 0
-1094.07 38.8369 0
-1094.26 32.9697 0
-1094.49 27.3754 0
-1094.73 22.1341 0
-1094.96 17.2733 0
-1095.17 12.7925 0
-1095.35 8.68469 0
-1095.5 4.93954 0
-1095.6 1.54193 0
-1095.65 -1.52553 0
-1095.65 -4.28332 0
-1095.58 -6.75256 0
-1095.44 -8.95532 0
-1095.24 -10.9123 0
-1094.97 -12.6438 0
-1094.63 -14.1685 0
-1094.23 -15.5028 0
-1093.77 -16.6642 0
-1093.24 -17.6666 0
-1092.67 -18.523 0
-1092.04 -19.2454 0
-1091.36 -19.8456 0
-1090.64 -20.3328 0
-1089.87 -20.716 0
-1089.06 -21.0032 0
-1088.21 -21.2019 0
-1087.32 -21.3178 0
-1086.4 -21.3574 0
-1085.44 -21.3257 0
-1084.45 -21.2284 0
-1083.43 -21.0702 0
-1082.37 -20.8546 0
-1081.29 -20.5868 0
-1080.17 -20.2698 0
-1079.03 -19.908 0
-1077.85 -19.5051 0
-1076.65 -19.0652 0
-1075.42 -18.5901 0
-1074.16 -18.0843 0
-1072.87 -17.5514 0
-1071.56 -16.9935 0
-1070.22 -16.4143 0
-1068.86 -15.8165 0
-1067.48 -15.2031 0
-1066.07 -14.5769 0
-1064.63 -13.9404 0
-1063.18 -13.2959 0
-1061.7 -12.6457 0
-1060.21 -11.9924 0
-1058.69 -11.3381 0
-1057.16 -10.6846 0
-1055.6 -10.0334 0
-1054.03 -9.38694 0
-1052.45 -8.74662 0
-1050.85 -8.11382 0
-1049.23 -7.49049 0
-1047.6 -6.87814 0
-1045.95 -6.27658 0
-1044.3 -5.68911 0
-1042.63 -5.11529 0
-1040.95 -4.55686 0
-1039.26 -4.01367 0
-1037.56 -3.48725 0
-1035.86 -2.97879 0
-1034.14 -2.4878 0
-1032.42 -2.0153 0
-1030.69 -1.56204 0
-1028.95 -1.12789 0
-1027.21 -0.71367 0
-1025.46 -0.319252 0
-1023.71 0.0549632 0
-1021.96 0.409066 0
-1020.2 0.742129 0
-1018.43 1.0553 0
-1016.67 1.34794 0
-1014.9 1.62075 0
-1013.13 1.87208 0
-1011.36 2.10363 0
-1009.59 2.31531 0
-1007.82 2.50709 0
-1006.05 2.67893 0
-1004.28 2.83134 0
-1002.51 2.9657 0
-1000.74 3.08065 0
-998.975 3.178 0
-997.209 3.25717 0
-995.445 3.31961 0
-993.682 3.3644 0
-991.922 3.39311 0
-990.165 3.40635 0
-988.41 3.40303 0
-986.658 3.38513 0
-984.909 3.35233 0
-983.164 3.30598 0
-981.422 3.24642 0
-979.683 3.17329 0
-977.947 3.08866 0
-976.216 2.99199 0
-974.488 2.88425 0
-972.764 2.76641 0
-971.045 2.63827 0
-969.328 2.50123 0
-967.617 2.35499 0
-965.909 2.20062 0
-964.205 2.0384 0
-962.505 1.86876 0
-960.81 1.69294 0
-959.118 1.51175 0
-957.431 1.32448 0
-955.747 1.13245 0
-954.068 0.935924 0
-952.392 0.734778 0
-950.72 0.530838 0
-949.052 0.325024 0
-947.388 0.116239 0
-945.728 -0.0951173 0
-944.071 -0.308569 0
-942.417 -0.522492 0
-940.767 -0.737234 0
-939.121 -0.950432 0
-937.477 -1.16497 0
-935.837 -1.37858 0
-934.2 -1.59054 0
-932.566 -1.80158 0
-930.936 -2.0112 0
-929.307 -2.21798 0
-927.681 -2.42314 0
-926.059 -2.62532 0
-924.438 -2.82485 0
-922.82 -3.02062 0
-921.204 -3.21409 0
-919.59 -3.40277 0
-917.978 -3.58759 0
-916.368 -3.76824 0
-914.759 -3.94599 0
-913.153 -4.11889 0
-911.548 -4.28651 0
-909.944 -4.44779 0
-908.342 -4.60551 0
-906.741 -4.75888 0
-905.141 -4.90523 0
-903.542 -5.04729 0
-901.944 -5.18444 0
-900.347 -5.3161 0
-898.75 -5.44229 0
-897.155 -5.56324 0
-895.559 -5.67831 0
-893.964 -5.78616 0
-892.37 -5.88989 0
-890.774 -5.98883 0
-889.181 -6.08103 0
-887.587 -6.1684 0
-885.993 -6.25021 0
-884.399 -6.32613 0
-882.806 -6.39733 0
-881.213 -6.46157 0
-879.618 -6.52273 0
-878.024 -6.57726 0
-876.429 -6.62584 0
-874.833 -6.66983 0
-873.237 -6.71004 0
-871.641 -6.74425 0
-870.044 -6.77427 0
-868.447 -6.79773 0
-866.85 -6.81819 0
-865.25 -6.83427 0
-863.651 -6.84566 0
-862.051 -6.8531 0
-860.45 -6.85652 0
-858.848 -6.85514 0
-857.245 -6.85074 0
-855.641 -6.84104 0
-854.036 -6.83025 0
-852.43 -6.81504 0
-850.824 -6.79641 0
-849.216 -6.77376 0
-847.607 -6.74886 0
-845.998 -6.72064 0
-844.387 -6.69103 0
-842.776 -6.65683 0
-841.163 -6.6215 0
-839.548 -6.58398 0
-837.933 -6.54453 0
-836.317 -6.50258 0
-834.701 -6.45853 0
-833.084 -6.41173 0
-831.464 -6.36498 0
-829.843 -6.31613 0
-828.223 -6.26637 0
-826.6 -6.21381 0
-824.978 -6.1618 0
-823.353 -6.10865 0
-821.729 -6.05366 0
-820.102 -5.99918 0
-818.476 -5.9452 0
-816.848 -5.88911 0
-815.219 -5.83175 0
-813.589 -5.77606 0
-811.959 -5.72131 0
-810.327 -5.6633 0
-808.694 -5.60778 0
-807.062 -5.54988 0
-805.43 -5.49509 0
-803.795 -5.4397 0
-802.159 -5.38472 0
-800.523 -5.3313 0
-798.887 -5.27658 0
-797.251 -5.22376 0
-795.614 -5.17155 0
-793.975 -5.11977 0
-792.337 -5.06901 0
-790.698 -5.0193 0
-789.058 -4.97134 0
-787.418 -4.92377 0
-785.775 -4.87763 0
-784.134 -4.8328 0
-782.492 -4.78839 0
-780.85 -4.74678 0
-779.207 -4.7063 0
-777.565 -4.66613 0
-775.922 -4.62937 0
-774.28 -4.59199 0
-772.636 -4.55339 0
-770.993 -4.51963 0
-769.348 -4.48656 0
-767.703 -4.45677 0
-766.059 -4.42808 0
-764.414 -4.40025 0
-762.77 -4.3741 0
-761.125 -4.34899 0
-759.481 -4.32536 0
-757.835 -4.30367 0
-756.19 -4.28378 0
-754.545 -4.26556 0
-752.9 -4.24762 0
-751.255 -4.23248 0
-749.61 -4.2184 0
-747.966 -4.20661 0
-746.32 -4.19731 0
-744.676 -4.1874 0
-743.031 -4.18053 0
-741.386 -4.17383 0
-739.741 -4.16831 0
-738.097 -4.16442 0
-736.453 -4.16298 0
-734.81 -4.16238 0
-733.166 -4.16309 0
-731.521 -4.16414 0
-729.877 -4.16832 0
-728.233 -4.17369 0
-726.591 -4.1798 0
-724.949 -4.18786 0
-723.305 -4.19477 0
-721.663 -4.20435 0
-720.021 -4.21579 0
-718.378 -4.22492 0
-716.735 -4.23824 0
-715.094 -4.25194 0
-713.453 -4.2662 0
-711.812 -4.2834 0
-710.173 -4.29897 0
-708.533 -4.3161 0
-706.892 -4.33332 0
-705.252 -4.35281 0
-703.613 -4.371 0
-701.974 -4.39149 0
-700.335 -4.41199 0
-698.695 -4.43228 0
-697.057 -4.45529 0
-695.417 -4.47675 0
-693.78 -4.50031 0
-692.143 -4.52364 0
-690.506 -4.54755 0
-688.87 -4.57162 0
-687.234 -4.59588 0
-685.596 -4.62035 0
-683.959 -4.64646 0
-682.322 -4.67022 0
-680.687 -4.69723 0
-679.051 -4.72497 0
-677.416 -4.75179 0
-675.782 -4.77693 0
-674.146 -4.80366 0
-672.511 -4.83045 0
-670.879 -4.85724 0
-669.245 -4.88359 0
-667.611 -4.91027 0
-665.977 -4.9368 0
-664.344 -4.962 0
-662.712 -4.99058 0
-661.081 -5.01391 0
-659.448 -5.04186 0
-657.815 -5.06677 0
-656.183 -5.09258 0
-654.551 -5.11813 0
-652.92 -5.14378 0
-651.287 -5.16741 0
-649.656 -5.1923 0
-648.025 -5.21825 0
-646.394 -5.24048 0
-644.761 -5.26338 0
-643.131 -5.2852 0
-641.5 -5.30793 0
-639.869 -5.33111 0
-638.24 -5.35225 0
-636.61 -5.37352 0
-634.979 -5.39538 0
-633.35 -5.41636 0
-631.719 -5.43477 0
-630.09 -5.45633 0
-628.461 -5.4753 0
-626.832 -5.49241 0
-625.202 -5.51088 0
-623.571 -5.52782 0
-621.942 -5.54486 0
-620.314 -5.56123 0
-618.685 -5.57931 0
-617.055 -5.59388 0
-615.426 -5.60815 0
-613.798 -5.6231 0
-612.166 -5.63668 0
-610.537 -5.64907 0
-608.908 -5.66242 0
-607.278 -5.674 0
-605.65 -5.68547 0
-604.022 -5.69725 0
-602.391 -5.70721 0
-600.762 -5.71742 0
-599.132 -5.72584 0
-597.503 -5.73378 0
-595.873 -5.74294 0
-594.244 -5.75128 0
-592.613 -5.76049 0
-590.984 -5.76744 0
-589.354 -5.77522 0
-587.726 -5.77956 0
-586.097 -5.78699 0
-584.467 -5.79011 0
-582.838 -5.79472 0
-581.207 -5.79752 0
-579.577 -5.80203 0
-577.947 -5.80547 0
-576.317 -5.8098 0
-574.687 -5.81086 0
-573.056 -5.81163 0
-571.426 -5.81528 0
-569.796 -5.8169 0
-568.164 -5.81986 0
-566.536 -5.82048 0
-564.906 -5.81996 0
-563.275 -5.82108 0
-561.645 -5.82027 0
-560.014 -5.81994 0
-558.383 -5.81873 0
-556.754 -5.81927 0
-555.122 -5.81725 0
-553.491 -5.81585 0
-551.859 -5.81309 0
-550.226 -5.81035 0
-548.598 -5.80979 0
-546.966 -5.80775 0
-545.333 -5.80441 0
-543.704 -5.80121 0
-542.071 -5.7974 0
-540.439 -5.79473 0
-538.807 -5.79285 0
-537.174 -5.78725 0
-535.541 -5.78359 0
-533.91 -5.77983 0
-532.278 -5.77664 0
-530.647 -5.77318 0
-529.016 -5.76985 0
-527.383 -5.76623 0
-525.749 -5.76075 0
-524.118 -5.75565 0
-522.485 -5.75171 0
-520.852 -5.74634 0
-519.221 -5.74328 0
-517.59 -5.73859 0
-515.956 -5.73187 0
-514.322 -5.72787 0
-512.69 -5.72298 0
-511.055 -5.71795 0
-509.421 -5.71231 0
-507.789 -5.70842 0
-506.156 -5.70209 0
-504.524 -5.69779 0
-502.892 -5.69328 0
-501.258 -5.68869 0
-499.625 -5.68306 0
-497.991 -5.67821 0
-496.358 -5.67609 0
-494.724 -5.67204 0
-493.092 -5.66751 0
-491.458 -5.66376 0
-489.824 -5.65838 0
-488.189 -5.6533 0
-486.556 -5.64805 0
-484.923 -5.64217 0
-483.288 -5.64102 0
-481.654 -5.63617 0
-480.02 -5.63268 0
-478.387 -5.62906 0
-476.754 -5.62383 0
-475.119 -5.61915 0
-473.484 -5.61758 0
-471.85 -5.61435 0
-470.215 -5.61224 0
-468.582 -5.61153 0
-466.947 -5.60648 0
-465.313 -5.60419 0
-463.68 -5.60059 0
-462.044 -5.59686 0
-460.412 -5.59526 0
-458.78 -5.59418 0
-457.143 -5.5922 0
-455.51 -5.58949 0
-453.876 -5.58938 0
-452.243 -5.58968 0
-450.609 -5.58859 0
-448.976 -5.58341 0
-447.341 -5.58182 0
-445.705 -5.58008 0
-444.072 -5.58017 0
-442.438 -5.58022 0
-440.804 -5.57917 0
-439.17 -5.58118 0
-437.535 -5.58038 0
-435.9 -5.57982 0
-434.265 -5.58124 0
-432.631 -5.57987 0
-431 -5.5796 0
-429.368 -5.58033 0
-427.731 -5.58054 0
-426.096 -5.58168 0
-424.461 -5.58028 0
-422.83 -5.58261 0
-421.196 -5.58187 0
-419.563 -5.58214 0
-417.929 -5.58462 0
-416.293 -5.58387 0
-414.66 -5.58429 0
-413.028 -5.58668 0
-411.392 -5.59132 0
-409.757 -5.58998 0
-408.124 -5.5929 0
-406.488 -5.59378 0
-404.855 -5.59733 0
-403.222 -5.59619 0
-401.59 -5.59795 0
-399.954 -5.59769 0
-398.322 -5.59961 0
-396.69 -5.60136 0
-395.059 -5.59997 0
-393.423 -5.60429 0
-391.789 -5.60745 0
-390.156 -5.60889 0
-388.523 -5.6114 0
-386.89 -5.61517 0
-385.257 -5.61515 0
-383.623 -5.61842 0
-381.991 -5.6212 0
-380.358 -5.62222 0
-378.727 -5.62265 0
-377.094 -5.6269 0
-375.461 -5.62936 0
-373.826 -5.63019 0
-372.193 -5.63335 0
-370.56 -5.63624 0
-368.929 -5.63763 0
-367.293 -5.64084 0
-365.661 -5.64324 0
-364.027 -5.646 0
-362.394 -5.64681 0
-360.761 -5.64986 0
-359.13 -5.65301 0
-357.496 -5.65378 0
-355.865 -5.65815 0
-354.232 -5.6595 0
-352.601 -5.66342 0
-350.968 -5.66518 0
-349.336 -5.67049 0
-347.702 -5.67229 0
-346.07 -5.67326 0
-344.437 -5.67599 0
-342.803 -5.67651 0
-341.172 -5.67768 0
-339.537 -5.68159 0
-337.906 -5.68534 0
-336.274 -5.69016 0
-334.64 -5.69051 0
-333.009 -5.69101 0
-331.377 -5.6936 0
-329.744 -5.6992 0
-328.112 -5.69908 0
-326.478 -5.69875 0
-324.843 -5.70087 0
-323.212 -5.70269 0
-321.581 -5.70151 0
-319.947 -5.70746 0
-318.314 -5.70895 0
-316.681 -5.7104 0
-315.05 -5.71131 0
-313.419 -5.71282 0
-311.785 -5.71579 0
-310.152 -5.71684 0
-308.521 -5.71686 0
-306.89 -5.71805 0
-305.257 -5.72031 0
-303.622 -5.72206 0
-301.991 -5.72198 0
-300.359 -5.723 0
-298.727 -5.72286 0
-297.094 -5.7224 0
-295.464 -5.72264 0
-293.831 -5.72383 0
-292.198 -5.72354 0
-290.569 -5.72575 0
-288.936 -5.72585 0
-287.303 -5.72398 0
-285.67 -5.72499 0
-284.035 -5.72643 0
-282.404 -5.73062 0
-280.772 -5.72916 0
-279.138 -5.73074 0
-277.506 -5.73081 0
-275.873 -5.72993 0
-274.241 -5.73089 0
-272.607 -5.73175 0
-270.975 -5.72921 0
-269.341 -5.73067 0
-267.71 -5.73207 0
-266.077 -5.73234 0
-264.446 -5.73221 0
-262.813 -5.73054 0
-261.181 -5.73135 0
-259.549 -5.72977 0
-257.917 -5.72792 0
-256.285 -5.72991 0
-254.652 -5.72738 0
-253.019 -5.72594 0
-251.385 -5.72732 0
-249.754 -5.72846 0
-248.121 -5.72503 0
-246.492 -5.72692 0
-244.858 -5.72533 0
-243.225 -5.72584 0
-241.593 -5.72472 0
-239.96 -5.72229 0
-238.328 -5.72266 0
-236.695 -5.72255 0
-235.061 -5.72192 0
-233.429 -5.7213 0
-231.797 -5.71892 0
-230.166 -5.72129 0
-228.534 -5.71966 0
-226.903 -5.71906 0
-225.271 -5.71893 0
-223.64 -5.71734 0
-222.005 -5.71608 0
-220.373 -5.71604 0
-218.741 -5.7164 0
-217.108 -5.71364 0
-215.477 -5.71073 0
-213.843 -5.71042 0
-212.211 -5.70825 0
-210.58 -5.70794 0
-208.947 -5.70788 0
-207.315 -5.70786 0
-205.682 -5.70766 0
-204.049 -5.70552 0
-202.415 -5.70425 0
-200.78 -5.70317 0
-199.149 -5.70419 0
-197.519 -5.70363 0
-195.885 -5.7031 0
-194.254 -5.69893 0
-192.62 -5.70005 0
-190.987 -5.69866 0
-189.355 -5.69769 0
-187.722 -5.69587 0
-186.089 -5.69426 0
-184.457 -5.69514 0
-182.825 -5.69091 0
-181.194 -5.69092 0
-179.561 -5.69118 0
-177.926 -5.68831 0
-176.295 -5.68466 0
-174.662 -5.68462 0
-173.031 -5.68344 0
-171.398 -5.68387 0
-169.765 -5.68076 0
-168.128 -5.67955 0
-166.499 -5.68277 0
-164.868 -5.67991 0
-163.236 -5.67889 0
-161.605 -5.67729 0
-159.972 -5.67674 0
-158.34 -5.67447 0
-156.708 -5.67611 0
-155.075 -5.67568 0
-153.44 -5.67499 0
-151.808 -5.67068 0
-150.178 -5.67088 0
-148.545 -5.66775 0
-146.911 -5.66863 0
-145.278 -5.66758 0
-143.647 -5.66866 0
-142.015 -5.6698 0
-140.38 -5.66809 0
-138.747 -5.66782 0
-137.113 -5.66447 0
-135.482 -5.66543 0
-133.85 -5.66394 0
-132.216 -5.66321 0
-130.583 -5.66175 0
-128.949 -5.66344 0
-127.314 -5.66334 0
-125.682 -5.66515 0
-124.052 -5.66583 0
-122.42 -5.66571 0
-120.789 -5.66532 0
-119.157 -5.66205 0
-117.524 -5.66326 0
-115.893 -5.66125 0
-114.26 -5.66258 0
-112.628 -5.66039 0
-110.995 -5.65987 0
-109.364 -5.65727 0
-107.73 -5.65869 0
-106.097 -5.65827 0
-104.464 -5.65755 0
-102.832 -5.6575 0
-101.199 -5.65799 0
-99.5637 -5.65693 0
-97.9309 -5.6574 0
-96.2996 -5.65417 0
-94.6696 -5.65856 0
-93.0351 -5.65941 0
-91.4028 -5.657 0
-89.7721 -5.65942 0
-88.1374 -5.65811 0
-86.5038 -5.65925 0
-84.8721 -5.65848 0
-83.242 -5.65937 0
-81.6103 -5.65721 0
-79.9763 -5.66005 0
-78.3444 -5.65808 0
-76.7136 -5.65603 0
-75.0789 -5.65438 0
-73.4463 -5.65436 0
-71.8129 -5.65745 0
-70.1803 -5.66017 0
-68.5528 -5.65909 0
-66.9171 -5.65817 0
-65.2851 -5.65825 0
-63.654 -5.65587 0
-62.0216 -5.65906 0
-60.3912 -5.65603 0
-58.7588 -5.65576 0
-57.1272 -5.65608 0
-55.4953 -5.65494 0
-53.8617 -5.65246 0
-52.2278 -5.6542 0
-50.5964 -5.6527 0
-48.9626 -5.6558 0
-47.3307 -5.65602 0
-45.6984 -5.65499 0
-44.0664 -5.65538 0
-42.4356 -5.65703 0
-40.8027 -5.65836 0
-39.1712 -5.65508 0
-37.5384 -5.65738 0
-35.906 -5.6569 0
-34.2726 -5.65509 0
-32.642 -5.6575 0
-31.0095 -5.65584 0
-29.3756 -5.65467 0
-27.7456 -5.65475 0
-26.1129 -5.65259 0
-24.4813 -5.65601 0
-22.8498 -5.65632 0
-21.2187 -5.65541 0
-19.5853 -5.65538 0
-17.9529 -5.65197 0
-16.3206 -5.65321 0
-14.6877 -5.65472 0
-13.0559 -5.65304 0
-11.4266 -5.65532 0
-9.79228 -5.65546 0
-8.16394 -5.65288 0
-6.52965 -5.65476 0
-4.8982 -5.65315 0
-3.26427 -5.65398 0
-1.63201 -5.65143 0
0 -5.65451 0
-1100.13 72.2538 0
-1100.14 65.0537 0
-1100.13 58.0655 0
-1100.09 51.3803 0
-1100.05 45.0246 0
-1100.04 38.9391 0
-1100.03 33.0683 0
-1099.95 27.4714 0
-1099.83 22.2282 0
-1099.68 17.3681 0
-1099.51 12.8924 0
-1099.33 8.79591 0
-1099.12 5.06951 0
-1098.88 1.69859 0
-1098.61 -1.33479 0
-1098.3 -4.05158 0
-1097.94 -6.47495 0
-1097.55 -8.62787 0
-1097.1 -10.5332 0
-1096.61 -12.2127 0
-1096.08 -13.6847 0
-1095.49 -14.9682 0
-1094.86 -16.08 0
-1094.18 -17.0347 0
-1093.46 -17.8456 0
-1092.71 -18.5252 0
-1091.91 -19.0842 0
-1091.08 -19.5321 0
-1090.21 -19.8783 0
-1089.3 -20.1298 0
-1088.37 -20.2941 0
-1087.4 -20.3773 0
-1086.41 -20.3852 0
-1085.38 -20.3227 0
-1084.33 -20.1957 0
-1083.24 -20.0079 0
-1082.14 -19.7637 0
-1081 -19.4674 0
-1079.84 -19.1226 0
-1078.65 -18.7336 0
-1077.44 -18.3039 0
-1076.2 -17.8371 0
-1074.93 -17.3366 0
-1073.65 -16.8054 0
-1072.33 -16.2472 0
-1071 -15.6652 0
-1069.64 -15.0622 0
-1068.26 -14.4414 0
-1066.86 -13.8056 0
-1065.44 -13.1578 0
-1064 -12.5001 0
-1062.54 -11.8351 0
-1061.06 -11.1652 0
-1059.56 -10.4931 0
-1058.04 -9.82088 0
-1056.51 -9.15004 0
-1054.96 -8.48222 0
-1053.4 -7.82013 0
-1051.82 -7.1647 0
-1050.23 -6.51767 0
-1048.62 -5.88066 0
-1047 -5.25527 0
-1045.37 -4.64214 0
-1043.73 -4.04309 0
-1042.07 -3.45853 0
-1040.41 -2.88979 0
-1038.74 -2.33741 0
-1037.06 -1.8027 0
-1035.37 -1.28569 0
-1033.67 -0.787287 0
-1031.96 -0.308455 0
-1030.25 0.15134 0
-1028.54 0.591368 0
-1026.81 1.01068 0
-1025.09 1.40965 0
-1023.35 1.78787 0
-1021.62 2.14544 0
-1019.88 2.48195 0
-1018.14 2.79766 0
-1016.39 3.09251 0
-1014.65 3.36697 0
-1012.9 3.62005 0
-1011.15 3.8522 0
-1009.4 4.06447 0
-1007.65 4.2563 0
-1005.89 4.42832 0
-1004.14 4.58054 0
-1002.39 4.71408 0
-1000.64 4.82779 0
-998.89 4.92399 0
-997.141 5.0019 0
-995.394 5.0625 0
-993.648 5.10511 0
-991.904 5.13185 0
-990.162 5.14218 0
-988.422 5.13687 0
-986.685 5.11595 0
-984.95 5.08069 0
-983.218 5.03075 0
-981.488 4.96806 0
-979.762 4.89217 0
-978.038 4.80401 0
-976.318 4.70401 0
-974.601 4.59272 0
-972.887 4.47117 0
-971.177 4.33959 0
-969.47 4.19854 0
-967.766 4.04853 0
-966.066 3.89062 0
-964.37 3.72475 0
-962.677 3.55126 0
-960.987 3.37162 0
-959.301 3.18646 0
-957.619 2.99583 0
-955.94 2.80015 0
-954.265 2.59968 0
-952.593 2.39506 0
-950.924 2.1878 0
-949.258 1.9782 0
-947.597 1.76505 0
-945.938 1.55079 0
-944.282 1.33471 0
-942.63 1.1175 0
-940.98 0.900173 0
-939.333 0.682759 0
-937.689 0.465524 0
-936.049 0.24902 0
-934.41 0.0343499 0
-932.775 -0.179618 0
-931.142 -0.391612 0
-929.511 -0.60097 0
-927.884 -0.808581 0
-926.257 -1.01324 0
-924.634 -1.21487 0
-923.013 -1.41309 0
-921.393 -1.60781 0
-919.775 -1.79932 0
-918.159 -1.98605 0
-916.545 -2.1686 0
-914.933 -2.34739 0
-913.321 -2.52167 0
-911.711 -2.69069 0
-910.102 -2.8535 0
-908.495 -3.01263 0
-906.889 -3.16629 0
-905.284 -3.31419 0
-903.68 -3.45702 0
-902.077 -3.59538 0
-900.475 -3.72757 0
-898.872 -3.85476 0
-897.271 -3.97611 0
-895.67 -4.09104 0
-894.07 -4.20019 0
-892.47 -4.30388 0
-890.87 -4.40273 0
-889.27 -4.49553 0
-887.671 -4.58281 0
-886.072 -4.66491 0
-884.472 -4.74077 0
-882.873 -4.81146 0
-881.274 -4.87576 0
-879.675 -4.93595 0
-878.074 -4.99062 0
-876.475 -5.03894 0
-874.874 -5.08295 0
-873.274 -5.12273 0
-871.673 -5.15665 0
-870.072 -5.18546 0
-868.47 -5.20918 0
-866.867 -5.22853 0
-865.264 -5.244 0
-863.66 -5.25488 0
-862.056 -5.26128 0
-860.451 -5.26324 0
-858.845 -5.2618 0
-857.238 -5.25626 0
-855.63 -5.2462 0
-854.022 -5.23395 0
-852.413 -5.21817 0
-850.803 -5.19831 0
-849.193 -5.17545 0
-847.581 -5.14883 0
-845.969 -5.12026 0
-844.355 -5.08836 0
-842.741 -5.05456 0
-841.126 -5.01762 0
-839.51 -4.97962 0
-837.894 -4.93834 0
-836.276 -4.89552 0
-834.657 -4.85122 0
-833.037 -4.80382 0
-831.416 -4.75504 0
-829.795 -4.70614 0
-828.172 -4.65469 0
-826.55 -4.60177 0
-824.925 -4.54909 0
-823.3 -4.49481 0
-821.674 -4.43979 0
-820.048 -4.38373 0
-818.421 -4.32826 0
-816.793 -4.27103 0
-815.164 -4.21405 0
-813.534 -4.15762 0
-811.903 -4.10092 0
-810.272 -4.04359 0
-808.64 -3.98622 0
-807.008 -3.92906 0
-805.374 -3.87228 0
-803.74 -3.81556 0
-802.106 -3.76025 0
-800.47 -3.70634 0
-798.834 -3.65234 0
-797.199 -3.59889 0
-795.562 -3.54466 0
-793.925 -3.49263 0
-792.288 -3.44245 0
-790.649 -3.39153 0
-789.01 -3.34168 0
-787.371 -3.2945 0
-785.731 -3.24778 0
-784.09 -3.20288 0
-782.45 -3.15924 0
-780.81 -3.11621 0
-779.168 -3.07539 0
-777.527 -3.03447 0
-775.885 -2.99673 0
-774.243 -2.96014 0
-772.602 -2.92287 0
-770.96 -2.88815 0
-769.317 -2.85433 0
-767.673 -2.82454 0
-766.03 -2.79564 0
-764.388 -2.76724 0
-762.745 -2.7416 0
-761.101 -2.7156 0
-759.459 -2.69218 0
-757.815 -2.67077 0
-756.172 -2.65032 0
-754.527 -2.63217 0
-752.884 -2.61424 0
-751.241 -2.59931 0
-749.598 -2.58576 0
-747.953 -2.57386 0
-746.311 -2.56425 0
-744.668 -2.55456 0
-743.024 -2.5474 0
-741.381 -2.53993 0
-739.737 -2.53491 0
-738.094 -2.53199 0
-736.452 -2.53025 0
-734.809 -2.52996 0
-733.166 -2.52993 0
-731.523 -2.53219 0
-729.881 -2.53686 0
-728.24 -2.54189 0
-726.598 -2.54892 0
-724.956 -2.55592 0
-723.313 -2.5632 0
-721.671 -2.57373 0
-720.031 -2.58451 0
-718.39 -2.59549 0
-716.75 -2.60901 0
-715.109 -2.62195 0
-713.469 -2.63693 0
-711.828 -2.65356 0
-710.188 -2.66983 0
-708.548 -2.68723 0
-706.909 -2.70523 0
-705.27 -2.72343 0
-703.631 -2.74273 0
-701.994 -2.76311 0
-700.355 -2.78452 0
-698.716 -2.80531 0
-697.078 -2.82766 0
-695.441 -2.85034 0
-693.804 -2.87374 0
-692.167 -2.89748 0
-690.53 -2.92192 0
-688.894 -2.947 0
-687.258 -2.97036 0
-685.621 -2.99524 0
-683.985 -3.02056 0
-682.35 -3.04579 0
-680.714 -3.07317 0
-679.078 -3.09959 0
-677.442 -3.1272 0
-675.807 -3.15289 0
-674.172 -3.17974 0
-672.538 -3.20715 0
-670.905 -3.2336 0
-669.271 -3.26076 0
-667.636 -3.28805 0
-666.003 -3.31446 0
-664.37 -3.34131 0
-662.737 -3.36864 0
-661.105 -3.39363 0
-659.473 -3.41958 0
-657.841 -3.44557 0
-656.208 -3.47162 0
-654.577 -3.49775 0
-652.944 -3.52305 0
-651.312 -3.54714 0
-649.68 -3.57167 0
-648.048 -3.59625 0
-646.416 -3.62067 0
-644.784 -3.64224 0
-643.153 -3.66634 0
-641.523 -3.6882 0
-639.893 -3.7116 0
-638.262 -3.73221 0
-636.631 -3.75394 0
-635 -3.77637 0
-633.37 -3.79626 0
-631.74 -3.81609 0
-630.109 -3.83684 0
-628.478 -3.85631 0
-626.85 -3.87433 0
-625.219 -3.89095 0
-623.59 -3.90968 0
-621.96 -3.92584 0
-620.33 -3.94197 0
-618.7 -3.95929 0
-617.07 -3.97534 0
-615.44 -3.99083 0
-613.811 -4.00389 0
-612.181 -4.01737 0
-610.55 -4.03006 0
-608.92 -4.04331 0
-607.291 -4.05598 0
-605.662 -4.06687 0
-604.032 -4.0774 0
-602.401 -4.08856 0
-600.771 -4.09948 0
-599.142 -4.10722 0
-597.511 -4.11507 0
-595.881 -4.12364 0
-594.25 -4.13278 0
-592.621 -4.14148 0
-590.992 -4.14997 0
-589.362 -4.15592 0
-587.731 -4.16139 0
-586.102 -4.16692 0
-584.471 -4.17173 0
-582.84 -4.17523 0
-581.21 -4.17944 0
-579.581 -4.18275 0
-577.949 -4.18715 0
-576.32 -4.19036 0
-574.69 -4.19114 0
-573.058 -4.19324 0
-571.428 -4.19535 0
-569.798 -4.19735 0
-568.166 -4.19975 0
-566.535 -4.20133 0
-564.905 -4.20055 0
-563.276 -4.20015 0
-561.644 -4.20011 0
-560.013 -4.20045 0
-558.381 -4.20057 0
-556.75 -4.19862 0
-555.12 -4.19651 0
-553.488 -4.19454 0
-551.855 -4.19317 0
-550.225 -4.19145 0
-548.593 -4.1902 0
-546.962 -4.18665 0
-545.332 -4.1838 0
-543.7 -4.18116 0
-542.069 -4.17755 0
-540.436 -4.17406 0
-538.804 -4.17122 0
-537.17 -4.16648 0
-535.54 -4.16308 0
-533.906 -4.15908 0
-532.274 -4.15588 0
-530.642 -4.15256 0
-529.008 -4.14911 0
-527.376 -4.14491 0
-525.744 -4.13887 0
-524.112 -4.13498 0
-522.481 -4.13046 0
-520.848 -4.12568 0
-519.217 -4.12261 0
-517.583 -4.11714 0
-515.951 -4.11084 0
-514.32 -4.10622 0
-512.686 -4.10124 0
-511.052 -4.09635 0
-509.417 -4.09125 0
-507.784 -4.08626 0
-506.151 -4.07987 0
-504.52 -4.07658 0
-502.886 -4.07196 0
-501.253 -4.06757 0
-499.62 -4.0623 0
-497.987 -4.05634 0
-496.353 -4.05227 0
-494.719 -4.04918 0
-493.084 -4.04404 0
-491.452 -4.04048 0
-489.819 -4.03512 0
-488.185 -4.03045 0
-486.552 -4.02651 0
-484.917 -4.02133 0
-483.284 -4.01666 0
-481.65 -4.01343 0
-480.017 -4.01057 0
-478.382 -4.00542 0
-476.749 -4.0018 0
-475.115 -3.99666 0
-473.482 -3.99535 0
-471.848 -3.99265 0
-470.215 -3.98992 0
-468.58 -3.98662 0
-466.945 -3.98458 0
-465.312 -3.98147 0
-463.678 -3.97741 0
-462.043 -3.97509 0
-460.41 -3.97299 0
-458.775 -3.97064 0
-457.142 -3.96904 0
-455.508 -3.96744 0
-453.875 -3.96601 0
-452.241 -3.96566 0
-450.607 -3.96531 0
-448.972 -3.96083 0
-447.338 -3.95887 0
-445.705 -3.95703 0
-444.071 -3.9571 0
-442.437 -3.95816 0
-440.803 -3.95794 0
-439.169 -3.9579 0
-437.535 -3.95714 0
-435.9 -3.95719 0
-434.265 -3.95798 0
-432.633 -3.95869 0
-431.001 -3.95805 0
-429.366 -3.95727 0
-427.734 -3.95843 0
-426.097 -3.95833 0
-424.463 -3.95848 0
-422.83 -3.9595 0
-421.197 -3.95848 0
-419.564 -3.96164 0
-417.929 -3.96126 0
-416.295 -3.96183 0
-414.662 -3.96376 0
-413.029 -3.96586 0
-411.394 -3.96694 0
-409.759 -3.96833 0
-408.125 -3.96943 0
-406.492 -3.97208 0
-404.858 -3.97456 0
-403.223 -3.97463 0
-401.59 -3.97592 0
-399.958 -3.97705 0
-398.325 -3.97788 0
-396.692 -3.97848 0
-395.06 -3.97845 0
-393.425 -3.98108 0
-391.791 -3.98477 0
-390.159 -3.98709 0
-388.525 -3.9888 0
-386.892 -3.99356 0
-385.259 -3.9935 0
-383.626 -3.99569 0
-381.994 -3.99797 0
-380.36 -4.00014 0
-378.726 -4.00057 0
-377.094 -4.00515 0
-375.463 -4.00679 0
-373.829 -4.00817 0
-372.196 -4.01131 0
-370.561 -4.01352 0
-368.928 -4.01557 0
-367.296 -4.01844 0
-365.663 -4.02114 0
-364.03 -4.02476 0
-362.397 -4.02567 0
-360.766 -4.0277 0
-359.133 -4.03132 0
-357.5 -4.03308 0
-355.867 -4.0355 0
-354.235 -4.0382 0
-352.602 -4.04079 0
-350.969 -4.0432 0
-349.337 -4.0475 0
-347.704 -4.05035 0
-346.07 -4.0518 0
-344.437 -4.05374 0
-342.803 -4.05616 0
-341.17 -4.05801 0
-339.54 -4.06104 0
-337.909 -4.0647 0
-336.275 -4.06792 0
-334.642 -4.06934 0
-333.011 -4.06982 0
-331.379 -4.07235 0
-329.746 -4.0765 0
-328.113 -4.0771 0
-326.48 -4.07753 0
-324.846 -4.07997 0
-323.212 -4.08149 0
-321.581 -4.08275 0
-319.949 -4.08479 0
-318.317 -4.08756 0
-316.685 -4.08988 0
-315.052 -4.08976 0
-313.419 -4.09148 0
-311.787 -4.09484 0
-310.153 -4.09563 0
-308.522 -4.09559 0
-306.889 -4.09738 0
-305.257 -4.09929 0
-303.626 -4.10057 0
-301.993 -4.10227 0
-300.358 -4.10144 0
-298.727 -4.10199 0
-297.096 -4.10362 0
-295.464 -4.10145 0
-293.832 -4.10258 0
-292.2 -4.10272 0
-290.568 -4.10472 0
-288.935 -4.10331 0
-287.302 -4.10301 0
-285.67 -4.10349 0
-284.037 -4.10486 0
-282.404 -4.10656 0
-280.772 -4.10748 0
-279.138 -4.10854 0
-277.507 -4.10778 0
-275.874 -4.11029 0
-274.242 -4.11094 0
-272.609 -4.10862 0
-270.976 -4.10847 0
-269.344 -4.10938 0
-267.71 -4.11011 0
-266.078 -4.11076 0
-264.447 -4.11128 0
-262.815 -4.10983 0
-261.181 -4.10977 0
-259.549 -4.10839 0
-257.917 -4.10694 0
-256.285 -4.10784 0
-254.651 -4.10514 0
-253.018 -4.10439 0
-251.388 -4.10601 0
-249.754 -4.10788 0
-248.121 -4.10529 0
-246.49 -4.10552 0
-244.857 -4.10619 0
-243.225 -4.10417 0
-241.592 -4.10342 0
-239.959 -4.10287 0
-238.326 -4.10102 0
-236.694 -4.10106 0
-235.062 -4.10048 0
-233.431 -4.09762 0
-231.798 -4.09846 0
-230.165 -4.10082 0
-228.534 -4.09905 0
-226.903 -4.09833 0
-225.27 -4.09768 0
-223.639 -4.09649 0
-222.007 -4.09426 0
-220.375 -4.09574 0
-218.742 -4.0942 0
-217.108 -4.09121 0
-215.476 -4.08935 0
-213.844 -4.08803 0
-212.211 -4.08884 0
-210.578 -4.0872 0
-208.945 -4.0875 0
-207.312 -4.08635 0
-205.679 -4.08608 0
-204.047 -4.08505 0
-202.415 -4.08399 0
-200.783 -4.07978 0
-199.15 -4.08232 0
-197.517 -4.08238 0
-195.885 -4.08144 0
-194.252 -4.07871 0
-192.619 -4.07813 0
-190.987 -4.07812 0
-189.355 -4.0745 0
-187.722 -4.07525 0
-186.088 -4.07307 0
-184.455 -4.07286 0
-182.825 -4.07137 0
-181.191 -4.06947 0
-179.557 -4.0687 0
-177.926 -4.06574 0
-176.294 -4.06582 0
-174.663 -4.06333 0
-173.03 -4.06334 0
-171.398 -4.06135 0
-169.765 -4.05911 0
-168.132 -4.05951 0
-166.498 -4.06035 0
-164.867 -4.05966 0
-163.235 -4.05875 0
-161.603 -4.05558 0
-159.97 -4.055 0
-158.338 -4.0545 0
-156.706 -4.05373 0
-155.072 -4.05393 0
-153.44 -4.05152 0
-151.807 -4.05107 0
-150.174 -4.0504 0
-148.543 -4.04866 0
-146.911 -4.04748 0
-145.279 -4.04742 0
-143.645 -4.04673 0
-142.011 -4.04721 0
-140.379 -4.04632 0
-138.744 -4.04492 0
-137.112 -4.04579 0
-135.48 -4.04308 0
-133.847 -4.04261 0
-132.215 -4.04152 0
-130.582 -4.04034 0
-128.95 -4.04039 0
-127.317 -4.04214 0
-125.684 -4.04376 0
-124.054 -4.04466 0
-122.421 -4.04459 0
-120.788 -4.04278 0
-119.157 -4.04252 0
-117.524 -4.03979 0
-115.892 -4.04098 0
-114.258 -4.03966 0
-112.626 -4.03955 0
-110.994 -4.03807 0
-109.362 -4.03791 0
-107.729 -4.03712 0
-106.097 -4.03624 0
-104.464 -4.03612 0
-102.831 -4.03611 0
-101.199 -4.03545 0
-99.5661 -4.03525 0
-97.9324 -4.03456 0
-96.3011 -4.03508 0
-94.6679 -4.03579 0
-93.0347 -4.03753 0
-91.4032 -4.03572 0
-89.7704 -4.03786 0
-88.1383 -4.0367 0
-86.5058 -4.03663 0
-84.8746 -4.03676 0
-83.2418 -4.03588 0
-81.6089 -4.03748 0
-79.9774 -4.03769 0
-78.3456 -4.03708 0
-76.7105 -4.03554 0
-75.0792 -4.03411 0
-73.4475 -4.03488 0
-71.8155 -4.03546 0
-70.182 -4.03898 0
-68.551 -4.03823 0
-66.9189 -4.03731 0
-65.2859 -4.03617 0
-63.6541 -4.03609 0
-62.0226 -4.0367 0
-60.3892 -4.03491 0
-58.7592 -4.03425 0
-57.1259 -4.03437 0
-55.4948 -4.0348 0
-53.8616 -4.03168 0
-52.2279 -4.03251 0
-50.5956 -4.03334 0
-48.9639 -4.03461 0
-47.3302 -4.034 0
-45.6988 -4.03412 0
-44.0662 -4.03634 0
-42.4351 -4.03643 0
-40.8031 -4.03733 0
-39.1713 -4.03553 0
-37.54 -4.03503 0
-35.9071 -4.03571 0
-34.2746 -4.03458 0
-32.6414 -4.03522 0
-31.0086 -4.03572 0
-29.3753 -4.03301 0
-27.7452 -4.03369 0
-26.1128 -4.03294 0
-24.4809 -4.03308 0
-22.8498 -4.03548 0
-21.2169 -4.03287 0
-19.5844 -4.03217 0
-17.9535 -4.03165 0
-16.3223 -4.03208 0
-14.6895 -4.03254 0
-13.0577 -4.03381 0
-11.4247 -4.03279 0
-9.79173 -4.0337 0
-8.16047 -4.03366 0
-6.52882 -4.03254 0
-4.89749 -4.03303 0
-3.26531 -4.03181 0
-1.63284 -4.03041 0
0 -4.03015 0
-1107.63 72.8169 0
-1107.23 65.4289 0
-1106.97 58.465 0
-1106.67 51.7909 0
-1106.37 45.396 0
-1106.07 39.2744 0
-1105.75 33.4366 0
-1105.38 27.8935 0
-1104.94 22.6781 0
-1104.45 17.8273 0
-1103.93 13.3567 0
-1103.38 9.26617 0
-1102.82 5.548 0
-1102.24 2.18897 0
-1101.64 -0.828556 0
-1101.02 -3.52504 0
-1100.38 -5.92376 0
-1099.72 -8.0486 0
-1099.03 -9.92293 0
-1098.31 -11.5694 0
-1097.57 -13.0076 0
-1096.79 -14.2565 0
-1095.99 -15.3342 0
-1095.16 -16.2552 0
-1094.3 -17.0332 0
-1093.41 -17.681 0
-1092.49 -18.2089 0
-1091.54 -18.627 0
-1090.57 -18.944 0
-1089.57 -19.1678 0
-1088.55 -19.3044 0
-1087.5 -19.3611 0
-1086.43 -19.3425 0
-1085.34 -19.2548 0
-1084.22 -19.1022 0
-1083.08 -18.8894 0
-1081.92 -18.6208 0
-1080.73 -18.3 0
-1079.52 -17.9315 0
-1078.29 -17.5186 0
-1077.03 -17.0655 0
-1075.76 -16.5758 0
-1074.46 -16.0525 0
-1073.15 -15.4992 0
-1071.81 -14.9194 0
-1070.45 -14.3157 0
-1069.07 -13.6922 0
-1067.68 -13.0509 0
-1066.26 -12.3954 0
-1064.83 -11.7284 0
-1063.38 -11.0519 0
-1061.91 -10.3692 0
-1060.42 -9.68199 0
-1058.92 -8.9929 0
-1057.41 -8.30451 0
-1055.87 -7.61808 0
-1054.33 -6.93558 0
-1052.77 -6.25929 0
-1051.2 -5.59043 0
-1049.61 -4.93055 0
-1048.01 -4.28145 0
-1046.41 -3.64429 0
-1044.79 -3.02038 0
-1043.16 -2.41094 0
-1041.52 -1.8167 0
-1039.87 -1.23907 0
-1038.21 -0.677692 0
-1036.55 -0.134938 0
-1034.87 0.389483 0
-1033.19 0.894689 0
-1031.51 1.38031 0
-1029.82 1.84585 0
-1028.12 2.2912 0
-1026.42 2.71568 0
-1024.71 3.11871 0
-1023 3.50096 0
-1021.28 3.86194 0
-1019.56 4.20157 0
-1017.84 4.51985 0
-1016.11 4.81707 0
-1014.39 5.09306 0
-1012.66 5.34756 0
-1010.93 5.58135 0
-1009.2 5.79445 0
-1007.47 5.98666 0
-1005.73 6.15871 0
-1004 6.31116 0
-1002.27 6.44409 0
-1000.53 6.55758 0
-998.802 6.65258 0
-997.071 6.7298 0
-995.34 6.78885 0
-993.611 6.83011 0
-991.883 6.85478 0
-990.156 6.86344 0
-988.431 6.85559 0
-986.708 6.83261 0
-984.988 6.79527 0
-983.269 6.74285 0
-981.552 6.67758 0
-979.838 6.59906 0
-978.127 6.50812 0
-976.417 6.40508 0
-974.711 6.29094 0
-973.007 6.16661 0
-971.306 6.03165 0
-969.609 5.8874 0
-967.913 5.73375 0