<?xml version="1.0"?>
<VTKFile type="StructuredGrid"  version="0.1" byte_order="LittleEndian" compressor="vtkZLibDataCompressor">
  <StructuredGrid WholeExtent="0 700 0 30 0 0">
    <Piece Extent="0 700 0 30 0 0">
      <PointData Vectors="Velocity">
        <DataArray type="Float32" Name="Velocity" NumberOfComponents="3" format="ascii">
-1091.66 64.5853 0
-1091.84 57.6871 0
-1092.08 50.9697 0
-1092.36 44.5516 0
-1092.63 38.4665 0
-1092.83 32.6458 0
-1093.02 27.0328 0
-1093.26 21.6961 0
-1093.52 16.719 0
-1093.76 12.1266 0
-1093.97 7.91597 0
-1094.15 4.07866 0
-1094.29 0.603158 0
-1094.39 -2.52504 0
-1094.43 -5.32685 0
-1094.42 -7.82238 0
-1094.33 -10.0349 0
-1094.18 -11.9867 0
-1093.95 -13.6994 0
-1093.65 -15.1941 0
-1093.29 -16.4892 0
-1092.86 -17.6029 0
-1092.36 -18.5515 0
-1091.8 -19.3498 0
-1091.19 -20.0111 0
-1090.52 -20.5474 0
-1089.81 -20.9699 0
-1089.04 -21.2884 0
-1088.23 -21.5117 0
-1087.38 -21.6482 0
-1086.49 -21.7042 0
-1085.56 -21.6868 0
-1084.6 -21.602 0
-1083.6 -21.455 0
-1082.56 -21.2507 0
-1081.49 -20.9932 0
-1080.4 -20.6876 0
-1079.27 -20.3375 0
-1078.11 -19.9469 0
-1076.92 -19.5198 0
-1075.7 -19.0589 0
-1074.45 -18.5677 0
-1073.18 -18.0506 0
-1071.88 -17.51 0
-1070.55 -16.9486 0
-1069.2 -16.3701 0
-1067.82 -15.7771 0
-1066.42 -15.1719 0
-1064.99 -14.5577 0
-1063.54 -13.9363 0
-1062.08 -13.3104 0
-1060.59 -12.6824 0
-1059.08 -12.0547 0
-1057.55 -11.4289 0
-1056 -10.8062 0
-1054.44 -10.1896 0
-1052.85 -9.57977 0
-1051.26 -8.97891 0
-1049.65 -8.38821 0
-1048.02 -7.80925 0
-1046.38 -7.24245 0
-1044.73 -6.68964 0
-1043.07 -6.15149 0
-1041.39 -5.62951 0
-1039.71 -5.12322 0
-1038.02 -4.63472 0
-1036.31 -4.16379 0
-1034.6 -3.71045 0
-1032.89 -3.27659 0
-1031.16 -2.86219 0
-1029.43 -2.46727 0
-1027.7 -2.09217 0
-1025.96 -1.73734 0
-1024.21 -1.40238 0
-1022.46 -1.08781 0
-1020.71 -0.793317 0
-1018.96 -0.519031 0
-1017.2 -0.264686 0
-1015.44 -0.0312811 0
-1013.68 0.183515 0
-1011.92 0.378153 0
-1010.16 0.553214 0
-1008.4 0.709395 0
-1006.64 0.846868 0
-1004.88 0.965957 0
-1003.12 1.06706 0
-1001.37 1.15083 0
-999.612 1.21733 0
-997.858 1.26728 0
-996.107 1.3011 0
-994.358 1.31948 0
-992.612 1.3227 0
-990.869 1.31113 0
-989.129 1.28562 0
-987.392 1.2468 0
-985.658 1.19485 0
-983.928 1.1305 0
-982.202 1.05472 0
-980.479 0.967578 0
-978.76 0.869585 0
-977.045 0.762363 0
-975.334 0.645387 0
-973.627 0.519641 0
-971.924 0.385606 0
-970.225 0.244449 0
-968.53 0.0960555 0
-966.839 -0.0589256 0
-965.153 -0.219381 0
-963.471 -0.38562 0
-961.792 -0.556256 0
-960.118 -0.732019 0
-958.447 -0.910569 0
-956.78 -1.09258 0
-955.117 -1.27765 0
-953.458 -1.46366 0
-951.802 -1.65284 0
-950.151 -1.84139 0
-948.503 -2.03154 0
-946.858 -2.22238 0
-945.217 -2.41304 0
-943.578 -2.60335 0
-941.944 -2.79214 0
-940.312 -2.98013 0
-938.683 -3.16719 0
-937.058 -3.35065 0
-935.434 -3.53308 0
-933.814 -3.71135 0
-932.196 -3.88696 0
-930.58 -4.06125 0
-928.967 -4.23061 0
-927.356 -4.3953 0
-925.746 -4.55778 0
-924.139 -4.71559 0
-922.533 -4.86915 0
-920.929 -5.01807 0
-919.327 -5.16294 0
-917.726 -5.30238 0
-916.127 -5.43701 0
-914.529 -5.56706 0
-912.931 -5.69085 0
-911.335 -5.80968 0
-909.739 -5.92372 0
-908.145 -6.03223 0
-906.552 -6.13548 0
-904.958 -6.23298 0
-903.365 -6.32577 0
-901.773 -6.41221 0
-900.181 -6.49277 0
-898.589 -6.56939 0
-896.997 -6.63912 0
-895.406 -6.7046 0
-893.814 -6.76441 0
-892.223 -6.81864 0
-890.631 -6.86727 0
-889.039 -6.91113 0
-887.447 -6.94994 0
-885.854 -6.98309 0
-884.261 -7.01144 0
-882.668 -7.03525 0
-881.073 -7.05445 0
-879.479 -7.06836 0
-877.883 -7.07825 0
-876.287 -7.08377 0
-874.69 -7.0851 0
-873.092 -7.08176 0
-871.494 -7.07504 0
-869.894 -7.06394 0
-868.293 -7.0494 0
-866.693 -7.03071 0
-865.091 -7.00877 0
-863.489 -6.98471 0
-861.884 -6.95634 0
-860.279 -6.9252 0
-858.673 -6.8906 0
-857.066 -6.85433 0
-855.458 -6.81505 0
-853.849 -6.77397 0
-852.239 -6.72991 0
-850.628 -6.68349 0
-849.015 -6.6359 0
-847.402 -6.58569 0
-845.788 -6.53368 0
-844.172 -6.48029 0
-842.555 -6.42603 0
-840.938 -6.37071 0
-839.32 -6.31399 0
-837.701 -6.25554 0
-836.08 -6.19691 0
-834.458 -6.13712 0
-832.836 -6.07636 0
-831.212 -6.01591 0
-829.589 -5.95456 0
-827.964 -5.89348 0
-826.337 -5.83137 0
-824.709 -5.76999 0
-823.081 -5.70883 0
-821.453 -5.64822 0
-819.824 -5.58735 0
-818.194 -5.5268 0
-816.562 -5.46697 0
-814.931 -5.40742 0
-813.299 -5.34836 0
-811.665 -5.28924 0
-810.032 -5.23102 0
-808.398 -5.17531 0
-806.763 -5.12011 0
-805.128 -5.06491 0
-803.491 -5.01126 0
-801.854 -4.95959 0
-800.217 -4.90879 0
-798.58 -4.85837 0
-796.943 -4.81041 0
-795.304 -4.76286 0
-793.665 -4.71815 0
-792.026 -4.67304 0
-790.387 -4.6302 0
-788.748 -4.58864 0
-787.108 -4.54905 0
-785.467 -4.51025 0
-783.827 -4.47429 0
-782.186 -4.43687 0
-780.545 -4.40545 0
-778.904 -4.37255 0
-777.263 -4.34301 0
-775.622 -4.31507 0
-773.981 -4.28692 0
-772.339 -4.2625 0
-770.697 -4.23787 0
-769.055 -4.21522 0
-767.415 -4.19392 0
-765.774 -4.17459 0
-764.132 -4.1573 0
-762.491 -4.14168 0
-760.849 -4.12711 0
-759.208 -4.1144 0
-757.567 -4.10316 0
-755.926 -4.09215 0
-754.285 -4.08431 0
-752.645 -4.07689 0
-751.005 -4.072 0
-749.365 -4.06748 0
-747.724 -4.06387 0
-746.084 -4.06204 0
-744.444 -4.06141 0
-742.804 -4.06285 0
-741.165 -4.06568 0
-739.526 -4.06929 0
-737.887 -4.07334 0
-736.249 -4.07917 0
-734.611 -4.08614 0
-732.973 -4.0938 0
-731.336 -4.10179 0
-729.698 -4.11065 0
-728.062 -4.12007 0
-726.425 -4.13249 0
-724.788 -4.1446 0
-723.152 -4.15772 0
-721.515 -4.17156 0
-719.88 -4.18615 0
-718.245 -4.20027 0
-716.609 -4.21669 0
-714.974 -4.23328 0
-713.34 -4.25042 0
-711.706 -4.26782 0
-710.072 -4.28712 0
-708.438 -4.30561 0
-706.805 -4.32391 0
-705.172 -4.34374 0
-703.54 -4.36212 0
-701.907 -4.38234 0
-700.274 -4.40285 0
-698.643 -4.42265 0
-697.011 -4.44238 0
-695.38 -4.46372 0
-693.749 -4.48596 0
-692.118 -4.50644 0
-690.486 -4.52797 0
-688.856 -4.54875 0
-687.226 -4.57001 0
-685.595 -4.5912 0
-683.965 -4.61407 0
-682.335 -4.63583 0
-680.707 -4.65508 0
-679.076 -4.67633 0
-677.448 -4.69727 0
-675.82 -4.71848 0
-674.191 -4.7393 0
-672.563 -4.75834 0
-670.935 -4.77841 0
-669.307 -4.79864 0
-667.68 -4.8191 0
-666.052 -4.8371 0
-664.426 -4.85669 0
-662.798 -4.87469 0
-661.171 -4.8935 0
-659.544 -4.91089 0
-657.917 -4.92832 0
-656.29 -4.94524 0
-654.662 -4.96264 0
-653.035 -4.97859 0
-651.409 -4.99342 0
-649.783 -5.00831 0
-648.157 -5.02363 0
-646.531 -5.04068 0
-644.905 -5.05297 0
-643.279 -5.06718 0
-641.653 -5.08096 0
-640.028 -5.09201 0
-638.401 -5.10479 0
-636.774 -5.11522 0
-635.149 -5.12736 0
-633.524 -5.1367 0
-631.897 -5.14725 0
-630.272 -5.15891 0
-628.645 -5.16718 0
-627.02 -5.17591 0
-625.394 -5.18622 0
-623.768 -5.19352 0
-622.142 -5.2013 0
-620.515 -5.20638 0
-618.89 -5.21286 0
-617.263 -5.21931 0
-615.637 -5.2246 0
-614.012 -5.23039 0
-612.386 -5.2358 0
-610.758 -5.23848 0
-609.132 -5.24371 0
-607.507 -5.24708 0
-605.881 -5.24886 0
-604.254 -5.25157 0
-602.628 -5.25294 0
-601 -5.25513 0
-599.373 -5.25763 0
-597.747 -5.2603 0
-596.12 -5.26199 0
-594.492 -5.26209 0
-592.866 -5.26148 0
-591.237 -5.26143 0
-589.61 -5.2629 0
-587.984 -5.26302 0
-586.358 -5.26225 0
-584.731 -5.25995 0
-583.104 -5.25839 0
-581.476 -5.25617 0
-579.847 -5.25544 0
-578.221 -5.25284 0
-576.593 -5.25124 0
-574.966 -5.24982 0
-573.338 -5.24601 0
-571.71 -5.24329 0
-570.082 -5.24118 0
-568.454 -5.23646 0
-566.825 -5.23538 0
-565.197 -5.23123 0
-563.569 -5.22796 0
-561.939 -5.22512 0
-560.31 -5.22074 0
-558.682 -5.21804 0
-557.054 -5.2153 0
-555.425 -5.21081 0
-553.797 -5.20734 0
-552.167 -5.20237 0
-550.54 -5.2005 0
-548.912 -5.19589 0
-547.281 -5.18968 0
-545.653 -5.18816 0
-544.024 -5.18431 0
-542.395 -5.18055 0
-540.767 -5.17483 0
-539.136 -5.17285 0
-537.507 -5.16856 0
-535.878 -5.16534 0
-534.246 -5.16151 0
-532.618 -5.15857 0
-530.988 -5.15508 0
-529.357 -5.15039 0
-527.728 -5.14777 0
-526.098 -5.14402 0
-524.469 -5.14269 0
-522.839 -5.13758 0
-521.21 -5.13452 0
-519.58 -5.13034 0
-517.951 -5.12615 0
-516.321 -5.12198 0
-514.69 -5.1223 0
-513.061 -5.11897 0
-511.43 -5.11636 0
-509.801 -5.11452 0
-508.17 -5.11197 0
-506.538 -5.10992 0
-504.909 -5.10667 0
-503.276 -5.10429 0
-501.647 -5.10384 0
-500.018 -5.10265 0
-498.386 -5.10026 0
-496.755 -5.10018 0
-495.126 -5.0991 0
-493.495 -5.09818 0
-491.866 -5.09852 0
-490.236 -5.09869 0
-488.606 -5.09834 0
-486.974 -5.0993 0
-485.345 -5.09758 0
-483.716 -5.0969 0
-482.087 -5.09662 0
-480.456 -5.09677 0
-478.826 -5.098 0
-477.194 -5.0983 0
-475.565 -5.09779 0
-473.934 -5.10055 0
-472.303 -5.10171 0
-470.675 -5.10367 0
-469.043 -5.10637 0
-467.414 -5.10691 0
-465.784 -5.10801 0
-464.153 -5.11023 0
-462.521 -5.11361 0
-460.892 -5.11537 0
-459.261 -5.1186 0
-457.629 -5.12005 0
-455.999 -5.12323 0
-454.368 -5.12493 0
-452.74 -5.12621 0
-451.107 -5.13075 0
-449.477 -5.13317 0
-447.847 -5.1366 0
-446.218 -5.142 0
-444.588 -5.14128 0
-442.957 -5.14571 0
-441.329 -5.15087 0
-439.699 -5.15303 0
-438.07 -5.15458 0
-436.44 -5.16255 0
-434.81 -5.1653 0
-433.18 -5.17024 0
-431.549 -5.17498 0
-429.921 -5.1788 0
-428.292 -5.18175 0
-426.662 -5.18639 0
-425.033 -5.19059 0
-423.402 -5.19425 0
-421.772 -5.19769 0
-420.143 -5.20332 0
-418.511 -5.20589 0
-416.884 -5.21139 0
-415.254 -5.21679 0
-413.625 -5.22214 0
-411.994 -5.22807 0
-410.367 -5.23243 0
-408.736 -5.23412 0
-407.108 -5.24042 0
-405.478 -5.24353 0
-403.849 -5.25013 0
-402.22 -5.2556 0
-400.59 -5.25783 0
-398.962 -5.26318 0
-397.329 -5.26681 0
-395.7 -5.27239 0
-394.072 -5.27863 0
-392.442 -5.28434 0
-390.816 -5.28935 0
-389.188 -5.29479 0
-387.559 -5.29956 0
-385.932 -5.30371 0
-384.301 -5.30697 0
-382.672 -5.31021 0
-381.042 -5.31475 0
-379.413 -5.32006 0
-377.785 -5.32562 0
-376.157 -5.32857 0
-374.53 -5.3344 0
-372.9 -5.33622 0
-371.272 -5.34033 0
-369.644 -5.3468 0
-368.014 -5.35002 0
-366.385 -5.35535 0
-364.756 -5.35855 0
-363.128 -5.36363 0
-361.499 -5.36845 0
-359.869 -5.37103 0
-358.241 -5.37685 0
-356.613 -5.38016 0
-354.983 -5.3839 0
-353.356 -5.38701 0
-351.729 -5.38934 0
-350.1 -5.39239 0
-348.471 -5.39795 0
-346.841 -5.40147 0
-345.213 -5.40557 0
-343.585 -5.40961 0
-341.955 -5.41288 0
-340.327 -5.41489 0
-338.7 -5.42205 0
-337.071 -5.42334 0
-335.442 -5.42581 0
-333.815 -5.42862 0
-332.189 -5.4335 0
-330.561 -5.43689 0
-328.931 -5.44115 0
-327.299 -5.44474 0
-325.672 -5.44973 0
-324.045 -5.45339 0
-322.417 -5.45394 0
-320.789 -5.45497 0
-319.158 -5.46121 0
-317.531 -5.4622 0
-315.902 -5.46483 0
-314.274 -5.46704 0
-312.646 -5.46972 0
-311.018 -5.47229 0
-309.391 -5.47544 0
-307.762 -5.47607 0
-306.133 -5.48029 0
-304.506 -5.48152 0
-302.878 -5.48589 0
-301.249 -5.48825 0
-299.619 -5.49261 0
-297.993 -5.49384 0
-296.364 -5.49509 0
-294.735 -5.49447 0
-293.107 -5.49632 0
-291.476 -5.49809 0
-289.849 -5.50224 0
-288.22 -5.50269 0
-286.592 -5.50584 0
-284.963 -5.50492 0
-283.334 -5.50686 0
-281.704 -5.50704 0
-280.075 -5.51298 0
-278.446 -5.51368 0
-276.82 -5.51312 0
-275.191 -5.51495 0
-273.563 -5.51632 0
-271.933 -5.51718 0
-270.306 -5.51763 0
-268.678 -5.51944 0
-267.05 -5.52219 0
-265.419 -5.52055 0
-263.792 -5.52398 0
-262.163 -5.52615 0
-260.536 -5.52807 0
-258.909 -5.52913 0
-257.281 -5.53125 0
-255.653 -5.53332 0
-254.022 -5.53272 0
-252.392 -5.5332 0
-250.764 -5.53462 0
-249.136 -5.53506 0
-247.507 -5.53728 0
-245.878 -5.53881 0
-244.251 -5.54143 0
-242.623 -5.54332 0
-240.994 -5.54394 0
-239.367 -5.54147 0
-237.737 -5.54517 0
-236.108 -5.54627 0
-234.479 -5.54634 0
-232.85 -5.54875 0
-231.221 -5.54775 0
-229.59 -5.55025 0
-227.962 -5.55199 0
-226.332 -5.55215 0
-224.705 -5.55416 0
-223.079 -5.55404 0
-221.449 -5.5539 0
-219.818 -5.5547 0
-218.192 -5.55591 0
-216.564 -5.55898 0
-214.934 -5.55936 0
-213.304 -5.56022 0
-211.679 -5.55952 0
-210.052 -5.56269 0
-208.421 -5.5618 0
-206.795 -5.56583 0
-205.167 -5.5652 0
-203.536 -5.56715 0
-201.906 -5.5696 0
-200.28 -5.56935 0
-198.649 -5.57102 0
-197.02 -5.57126 0
-195.392 -5.57257 0
-193.763 -5.57102 0
-192.133 -5.57144 0
-190.506 -5.57341 0
-188.878 -5.57152 0
-187.249 -5.57528 0
-185.62 -5.57577 0
-183.994 -5.57655 0
-182.367 -5.578 0
-180.737 -5.57872 0
-179.109 -5.58071 0
-177.48 -5.58292 0
-175.852 -5.58293 0
-174.223 -5.58221 0
-172.596 -5.58387 0
-170.965 -5.58497 0
-169.337 -5.58363 0
-167.713 -5.58419 0
-166.082 -5.58722 0
-164.453 -5.5879 0
-162.824 -5.59101 0
-161.195 -5.59234 0
-159.566 -5.59278 0
-157.936 -5.59272 0
-156.307 -5.59252 0
-154.679 -5.59392 0
-153.051 -5.59492 0
-151.42 -5.59703 0
-149.794 -5.60038 0
-148.165 -5.60122 0
-146.536 -5.60021 0
-144.909 -5.60172 0
-143.282 -5.60403 0
-141.652 -5.60298 0
-140.024 -5.60612 0
-138.396 -5.60869 0
-136.769 -5.61081 0
-135.138 -5.6122 0
-133.511 -5.61362 0
-131.88 -5.61626 0
-130.252 -5.61715 0
-128.622 -5.61674 0
-126.993 -5.61888 0
-125.363 -5.61717 0
-123.736 -5.61822 0
-122.107 -5.62094 0
-120.481 -5.62046 0
-118.852 -5.62245 0
-117.223 -5.62369 0
-115.595 -5.62665 0
-113.968 -5.62798 0
-112.34 -5.63025 0
-110.711 -5.6291 0
-109.084 -5.62871 0
-107.455 -5.63189 0
-105.825 -5.63296 0
-104.197 -5.63541 0
-102.567 -5.63626 0
-100.94 -5.63832 0
-99.3142 -5.64153 0
-97.6847 -5.64027 0
-96.0562 -5.64229 0
-94.4295 -5.64359 0
-92.8008 -5.64656 0
-91.172 -5.64679 0
-89.5446 -5.6497 0
-87.9168 -5.64747 0
-86.2876 -5.64923 0
-84.6566 -5.65007 0
-83.0297 -5.65344 0
-81.4022 -5.65117 0
-79.7759 -5.65402 0
-78.147 -5.65706 0
-76.5216 -5.65569 0
-74.8904 -5.65594 0
-73.2616 -5.65544 0
-71.6336 -5.6574 0
-70.006 -5.6578 0
-68.3781 -5.65769 0
-66.7511 -5.65974 0
-65.1227 -5.66027 0
-63.492 -5.66088 0
-61.8644 -5.66139 0
-60.2378 -5.66245 0
-58.6096 -5.66127 0
-56.981 -5.6619 0
-55.3514 -5.66274 0
-53.7227 -5.66592 0
-52.0959 -5.66615 0
-50.4687 -5.66744 0
-48.841 -5.66677 0
-47.2127 -5.66867 0
-45.5868 -5.6675 0
-43.9566 -5.67141 0
-42.3301 -5.66916 0
-40.7001 -5.66922 0
-39.0716 -5.66903 0
-37.4433 -5.6677 0
-35.8142 -5.67224 0
-34.1864 -5.66986 0
-32.5564 -5.67143 0
-30.9328 -5.67015 0
-29.304 -5.67166 0
-27.6744 -5.67091 0
-26.0472 -5.67092 0
-24.4155 -5.67305 0
-22.7885 -5.67556 0
-21.1629 -5.67473 0
-19.534 -5.6755 0
-17.9088 -5.67634 0
-16.2811 -5.67399 0
-14.6522 -5.67392 0
-13.024 -5.6754 0
-11.3961 -5.67559 0
-9.76909 -5.67373 0
-8.13797 -5.67677 0
-6.51045 -5.67603 0
-4.8839 -5.67768 0
-3.25614 -5.67801 0
-1.6284 -5.68011 0
0 -5.6746 0
-1098.56 64.8076 0
-1098.59 57.8537 0
-1098.6 51.1136 0
-1098.57 44.682 0
-1098.54 38.5856 0
-1098.55 32.7577 0
-1098.54 27.1403 0
-1098.47 21.8004 0
-1098.35 16.8199 0
-1098.2 12.2271 0
-1098.04 8.02136 0
-1097.86 4.19564 0
-1097.64 0.739752 0
-1097.4 -2.36077 0
-1097.12 -5.12606 0
-1096.81 -7.57873 0
-1096.44 -9.74242 0
-1096.03 -11.6421 0
-1095.57 -13.3007 0
-1095.07 -14.7407 0
-1094.51 -15.982 0
-1093.9 -17.0425 0
-1093.24 -17.9398 0
-1092.54 -18.6888 0
-1091.8 -19.3029 0
-1091.01 -19.7949 0
-1090.18 -20.1753 0
-1089.32 -20.4536 0
-1088.42 -20.6391 0
-1087.48 -20.7389 0
-1086.51 -20.7604 0
-1085.51 -20.7098 0
-1084.48 -20.5927 0
-1083.42 -20.4141 0
-1082.33 -20.1792 0
-1081.22 -19.8922 0
-1080.07 -19.5579 0
-1078.9 -19.1793 0
-1077.7 -18.7611 0
-1076.48 -18.3064 0
-1075.23 -17.8188 0
-1073.95 -17.3018 0
-1072.65 -16.759 0
-1071.33 -16.1934 0
-1069.99 -15.6081 0
-1068.62 -15.0058 0
-1067.23 -14.3897 0
-1065.82 -13.7623 0
-1064.38 -13.1267 0
-1062.93 -12.4846 0
-1061.46 -11.8389 0
-1059.97 -11.1918 0
-1058.46 -10.5455 0
-1056.93 -9.90169 0
-1055.39 -9.26253 0
-1053.83 -8.6299 0
-1052.26 -8.00504 0
-1050.67 -7.38955 0
-1049.07 -6.78524 0
-1047.46 -6.19323 0
-1045.83 -5.61449 0
-1044.19 -5.05024 0
-1042.55 -4.50148 0
-1040.89 -3.96918 0
-1039.22 -3.45437 0
-1037.54 -2.95688 0
-1035.86 -2.47816 0
-1034.17 -2.01809 0
-1032.47 -1.57722 0
-1030.76 -1.15702 0
-1029.05 -0.756501 0
-1027.34 -0.376618 0
-1025.62 -0.0173233 0
-1023.89 0.321271 0
-1022.16 0.639313 0
-1020.43 0.936396 0
-1018.7 1.21298 0
-1016.96 1.46875 0
-1015.22 1.70427 0
-1013.48 1.91969 0
-1011.74 2.11477 0
-1010 2.29043 0
-1008.26 2.44651 0
-1006.52 2.58335 0
-1004.78 2.70164 0
-1003.03 2.80169 0
-1001.29 2.88395 0
-999.556 2.94886 0
-997.819 2.99695 0
-996.083 3.0289 0
-994.349 3.04482 0
-992.618 3.04526 0
-990.889 3.03118 0
-989.163 3.00266 0
-987.439 2.96088 0
-985.718 2.9058 0
-983.999 2.83838 0
-982.284 2.75933 0
-980.572 2.66862 0
-978.863 2.56725 0
-977.157 2.45607 0
-975.455 2.33561 0
-973.757 2.20583 0
-972.061 2.0684 0
-970.369 1.92298 0
-968.681 1.77125 0
-966.996 1.61253 0
-965.315 1.448 0
-963.637 1.27799 0
-961.964 1.10348 0
-960.293 0.924565 0
-958.626 0.742365 0
-956.961 0.556802 0
-955.301 0.368557 0
-953.644 0.178434 0
-951.99 -0.0134842 0
-950.339 -0.206187 0
-948.692 -0.399461 0
-947.047 -0.593442 0
-945.405 -0.78715 0
-943.766 -0.980456 0
-942.13 -1.17233 0
-940.497 -1.36291 0
-938.867 -1.552 0
-937.239 -1.7388 0
-935.613 -1.9231 0
-933.99 -2.10404 0
-932.368 -2.28234 0
-930.749 -2.45823 0
-929.132 -2.62958 0
-927.517 -2.79693 0
-925.904 -2.96087 0
-924.293 -3.12068 0
-922.683 -3.27544 0
-921.075 -3.42622 0
-919.468 -3.57228 0
-917.862 -3.71317 0
-916.257 -3.84877 0
-914.654 -3.97946 0
-913.051 -4.10448 0
-911.45 -4.22437 0
-909.849 -4.33959 0
-908.25 -4.44886 0
-906.65 -4.55254 0
-905.052 -4.65064 0
-903.454 -4.74368 0
-901.856 -4.83059 0
-900.258 -4.91144 0
-898.661 -4.98762 0
-897.064 -5.05824 0
-895.467 -5.12328 0
-893.87 -5.18275 0
-892.273 -5.23746 0
-890.677 -5.28566 0
-889.079 -5.32893 0
-887.482 -5.36767 0
-885.884 -5.4008 0
-884.286 -5.4289 0
-882.688 -5.45211 0
-881.089 -5.47053 0
-879.49 -5.48393 0
-877.89 -5.49309 0
-876.289 -5.49822 0
-874.689 -5.49898 0
-873.087 -5.49508 0
-871.484 -5.48735 0
-869.881 -5.47535 0
-868.277 -5.45973 0
-866.673 -5.44102 0
-865.068 -5.4183 0
-863.461 -5.39243 0
-861.854 -5.36313 0
-860.245 -5.33127 0
-858.637 -5.29615 0
-857.028 -5.25886 0
-855.418 -5.21852 0
-853.807 -5.17608 0
-852.194 -5.13119 0
-850.581 -5.08382 0
-848.967 -5.03456 0
-847.351 -4.98418 0
-845.735 -4.93126 0
-844.119 -4.87696 0
-842.501 -4.8219 0
-840.883 -4.76529 0
-839.263 -4.70721 0
-837.642 -4.64817 0
-836.021 -4.58827 0
-834.399 -4.52791 0
-832.776 -4.46647 0
-831.152 -4.4045 0
-829.527 -4.343 0
-827.902 -4.28099 0
-826.276 -4.21844 0
-824.649 -4.15575 0
-823.021 -4.09411 0
-821.393 -4.03214 0
-819.764 -3.97104 0
-818.134 -3.90938 0
-816.503 -3.84881 0
-814.872 -3.78865 0
-813.241 -3.72871 0
-811.608 -3.66959 0
-809.976 -3.61092 0
-808.342 -3.55401 0
-806.709 -3.49808 0
-805.073 -3.44261 0
-803.438 -3.38806 0
-801.803 -3.33604 0
-800.167 -3.28519 0
-798.531 -3.2352 0
-796.895 -3.18605 0
-795.258 -3.13846 0
-793.62 -3.09317 0
-791.983 -3.0478 0
-790.345 -3.00508 0
-788.707 -2.96339 0
-787.068 -2.92253 0
-785.429 -2.8843 0
-783.791 -2.84788 0
-782.152 -2.81089 0
-780.512 -2.77892 0
-778.874 -2.7468 0
-777.234 -2.71585 0
-775.595 -2.68789 0
-773.955 -2.6598 0
-772.314 -2.63471 0
-770.675 -2.61108 0
-769.034 -2.58769 0
-767.394 -2.56698 0
-765.756 -2.54766 0
-764.116 -2.53035 0
-762.475 -2.51388 0
-760.835 -2.4995 0
-759.195 -2.48692 0
-757.556 -2.47543 0
-755.917 -2.4654 0
-754.278 -2.45745 0
-752.639 -2.45071 0
-751 -2.44611 0
-749.362 -2.44051 0
-747.722 -2.43808 0
-746.083 -2.43669 0
-744.445 -2.43612 0
-742.807 -2.43733 0
-741.168 -2.44034 0
-739.53 -2.44327 0
-737.892 -2.44835 0
-736.255 -2.45513 0
-734.618 -2.46192 0
-732.981 -2.46979 0
-731.344 -2.47839 0
-729.708 -2.48732 0
-728.073 -2.49687 0
-726.437 -2.50931 0
-724.801 -2.52172 0
-723.164 -2.5343 0
-721.529 -2.54945 0
-719.895 -2.56413 0
-718.26 -2.5784 0
-716.625 -2.59468 0
-714.991 -2.61161 0
-713.358 -2.63011 0
-711.724 -2.64732 0
-710.09 -2.66587 0
-708.457 -2.68555 0
-706.824 -2.7048 0
-705.192 -2.72379 0
-703.559 -2.74391 0
-701.927 -2.76384 0
-700.295 -2.78422 0
-698.663 -2.80414 0
-697.031 -2.82488 0
-695.399 -2.84647 0
-693.768 -2.8676 0
-692.138 -2.88882 0
-690.508 -2.91019 0
-688.876 -2.93175 0
-687.246 -2.95211 0
-685.616 -2.97472 0
-683.986 -2.99787 0
-682.356 -3.01909 0
-680.727 -3.03948 0
-679.098 -3.06067 0
-677.469 -3.08231 0
-675.84 -3.10318 0
-674.211 -3.12442 0
-672.583 -3.14445 0
-670.955 -3.16396 0
-669.326 -3.18384 0
-667.699 -3.20448 0
-666.071 -3.22374 0
-664.443 -3.24202 0
-662.816 -3.26035 0
-661.189 -3.27874 0
-659.561 -3.29638 0
-657.933 -3.31473 0
-656.306 -3.33193 0
-654.679 -3.34772 0
-653.052 -3.36444 0
-651.425 -3.38045 0
-649.797 -3.3949 0
-648.171 -3.41174 0
-646.545 -3.4268 0
-644.919 -3.43953 0
-643.292 -3.45379 0
-641.665 -3.46753 0
-640.038 -3.47891 0
-638.412 -3.49169 0
-636.786 -3.50375 0
-635.16 -3.51445 0
-633.534 -3.52406 0
-631.909 -3.53532 0
-630.282 -3.54489 0
-628.655 -3.55469 0
-627.028 -3.56277 0
-625.402 -3.57184 0
-623.775 -3.57973 0
-622.148 -3.58803 0
-620.522 -3.59417 0
-618.896 -3.60071 0
-617.27 -3.60651 0
-615.643 -3.61268 0
-614.017 -3.61771 0
-612.39 -3.62201 0
-610.764 -3.62642 0
-609.137 -3.62969 0
-607.51 -3.63424 0
-605.883 -3.63576 0
-604.256 -3.63882 0
-602.63 -3.6399 0
-601.002 -3.64114 0
-599.375 -3.64475 0
-597.748 -3.64606 0
-596.121 -3.64803 0
-594.492 -3.64835 0
-592.865 -3.64752 0
-591.239 -3.64759 0
-589.611 -3.64866 0
-587.984 -3.64911 0
-586.356 -3.64773 0
-584.73 -3.64571 0
-583.102 -3.64349 0
-581.474 -3.64224 0
-579.846 -3.64125 0
-578.218 -3.63883 0
-576.59 -3.63676 0
-574.962 -3.63498 0
-573.335 -3.63179 0
-571.707 -3.62826 0
-570.079 -3.62636 0
-568.45 -3.62137 0
-566.822 -3.61969 0
-565.195 -3.61635 0
-563.565 -3.61313 0
-561.937 -3.60825 0
-560.308 -3.60558 0
-558.68 -3.60272 0
-557.051 -3.59907 0
-555.422 -3.5968 0
-553.794 -3.59141 0
-552.165 -3.58718 0
-550.535 -3.58537 0
-548.905 -3.57946 0
-547.277 -3.57444 0
-545.649 -3.57132 0
-544.019 -3.56804 0
-542.39 -3.5655 0
-540.76 -3.55908 0
-539.131 -3.55616 0
-537.501 -3.55244 0
-535.873 -3.54863 0
-534.243 -3.54469 0
-532.613 -3.5418 0
-530.984 -3.53865 0
-529.354 -3.53552 0
-527.726 -3.53139 0
-526.096 -3.52719 0
-524.466 -3.52419 0
-522.836 -3.52112 0
-521.206 -3.51776 0
-519.577 -3.51377 0
-517.947 -3.50991 0
-516.317 -3.50555 0
-514.688 -3.50426 0
-513.058 -3.5025 0
-511.428 -3.50021 0
-509.797 -3.49848 0
-508.168 -3.49419 0
-506.537 -3.49281 0
-504.907 -3.49044 0
-503.276 -3.48721 0
-501.646 -3.48757 0
-500.015 -3.48607 0
-498.385 -3.48419 0
-496.755 -3.4834 0
-495.126 -3.48358 0
-493.495 -3.4822 0
-491.865 -3.4817 0
-490.234 -3.4822 0
-488.604 -3.48235 0
-486.975 -3.4819 0
-485.346 -3.48133 0
-483.715 -3.48084 0
-482.084 -3.47984 0
-480.455 -3.48072 0
-478.825 -3.48041 0
-477.196 -3.48183 0
-475.565 -3.48202 0
-473.936 -3.48278 0
-472.305 -3.48438 0
-470.675 -3.48812 0
-469.046 -3.48804 0
-467.416 -3.49076 0
-465.785 -3.49078 0
-464.155 -3.49379 0
-462.525 -3.49609 0
-460.893 -3.49801 0
-459.263 -3.50042 0
-457.632 -3.50315 0
-456.003 -3.50721 0
-454.371 -3.50782 0
-452.741 -3.50934 0
-451.111 -3.51212 0
-449.482 -3.51659 0
-447.85 -3.52088 0
-446.22 -3.52399 0
-444.591 -3.52556 0
-442.963 -3.52992 0
-441.333 -3.53357 0
-439.702 -3.53725 0
-438.074 -3.54033 0
-436.444 -3.54437 0
-434.814 -3.54985 0
-433.186 -3.55243 0
-431.556 -3.55788 0
-429.925 -3.56234 0
-428.295 -3.56718 0
-426.664 -3.57054 0
-425.034 -3.57386 0
-423.405 -3.57857 0
-421.776 -3.58223 0
-420.147 -3.58642 0
-418.516 -3.59068 0
-416.889 -3.59671 0
-415.259 -3.6008 0
-413.631 -3.60667 0
-412 -3.61118 0
-410.371 -3.61548 0
-408.74 -3.61916 0
-407.111 -3.62488 0
-405.483 -3.62824 0
-403.854 -3.63318 0
-402.223 -3.63889 0
-400.594 -3.64264 0
-398.965 -3.64661 0
-397.335 -3.65084 0
-395.707 -3.65569 0
-394.077 -3.66367 0
-392.449 -3.66924 0
-390.82 -3.6753 0
-389.192 -3.67913 0
-387.563 -3.68473 0
-385.934 -3.68793 0
-384.305 -3.6899 0
-382.677 -3.69405 0
-381.049 -3.69899 0
-379.42 -3.70461 0
-377.791 -3.70925 0
-376.163 -3.71397 0
-374.533 -3.71668 0
-372.905 -3.72036 0
-371.276 -3.72622 0
-369.648 -3.73152 0
-368.019 -3.73379 0
-366.39 -3.73876 0
-364.762 -3.74251 0
-363.133 -3.74749 0
-361.504 -3.75223 0
-359.874 -3.75572 0
-358.247 -3.76122 0
-356.618 -3.7644 0
-354.988 -3.76853 0
-353.361 -3.77274 0
-351.732 -3.77495 0
-350.104 -3.77748 0
-348.474 -3.78332 0
-346.846 -3.7869 0
-345.218 -3.79156 0
-343.589 -3.79422 0
-341.959 -3.79757 0
-340.33 -3.80131 0
-338.703 -3.80405 0
-337.075 -3.80772 0
-335.446 -3.81221 0
-333.819 -3.81555 0
-332.192 -3.81942 0
-330.563 -3.82239 0
-328.935 -3.82485 0
-327.306 -3.83045 0
-325.676 -3.83474 0
-324.047 -3.8377 0
-322.418 -3.83925 0
-320.792 -3.83975 0
-319.162 -3.84436 0
-317.533 -3.84818 0
-315.904 -3.8499 0
-314.275 -3.85286 0
-312.649 -3.85525 0
-311.02 -3.85756 0
-309.392 -3.86092 0
-307.763 -3.86246 0
-306.136 -3.86512 0
-304.506 -3.86576 0
-302.879 -3.86923 0
-301.251 -3.87276 0
-299.622 -3.87608 0
-297.994 -3.87823 0
-296.364 -3.87953 0
-294.736 -3.87996 0
-293.108 -3.88294 0
-291.48 -3.88383 0
-289.851 -3.88694 0
-288.221 -3.88782 0
-286.592 -3.88893 0
-284.964 -3.89142 0
-283.336 -3.89099 0
-281.706 -3.8923 0
-280.077 -3.89555 0
-278.448 -3.89883 0
-276.821 -3.89748 0
-275.192 -3.9007 0
-273.563 -3.90201 0
-271.936 -3.90176 0
-270.308 -3.9042 0
-268.679 -3.90395 0
-267.051 -3.90575 0
-265.423 -3.90564 0
-263.794 -3.90916 0
-262.166 -3.90989 0
-260.537 -3.91358 0
-258.909 -3.9147 0
-257.281 -3.91561 0
-255.653 -3.91537 0
-254.024 -3.91595 0
-252.395 -3.9165 0
-250.767 -3.91906 0
-249.139 -3.92009 0
-247.509 -3.92108 0
-245.881 -3.92445 0
-244.251 -3.92686 0
-242.624 -3.92777 0
-240.995 -3.92718 0
-239.366 -3.92725 0
-237.738 -3.9289 0
-236.109 -3.93006 0
-234.482 -3.93142 0
-232.853 -3.93135 0
-231.223 -3.93215 0
-229.593 -3.93469 0
-227.965 -3.93629 0
-226.335 -3.9365 0
-224.706 -3.94004 0
-223.077 -3.94003 0
-221.45 -3.93813 0
-219.822 -3.94105 0
-218.192 -3.942 0
-216.566 -3.94345 0
-214.936 -3.94272 0
-213.308 -3.94563 0
-211.68 -3.94562 0
-210.052 -3.94626 0
-208.424 -3.94717 0
-206.797 -3.94965 0
-205.167 -3.94938 0
-203.538 -3.95041 0
-201.908 -3.95256 0
-200.28 -3.95496 0
-198.65 -3.95454 0
-197.022 -3.95632 0
-195.393 -3.95811 0
-193.764 -3.95596 0
-192.135 -3.95601 0
-190.507 -3.95898 0
-188.879 -3.95675 0
-187.251 -3.95894 0
-185.623 -3.96016 0
-183.994 -3.96198 0
-182.366 -3.96233 0
-180.737 -3.96392 0
-179.109 -3.96518 0
-177.482 -3.96608 0
-175.853 -3.96777 0
-174.224 -3.96685 0
-172.595 -3.96859 0
-170.967 -3.96952 0
-169.338 -3.97017 0
-167.71 -3.97187 0
-166.084 -3.9721 0
-164.454 -3.97329 0
-162.826 -3.97619 0
-161.197 -3.97496 0
-159.568 -3.97588 0
-157.938 -3.97663 0
-156.31 -3.97838 0
-154.682 -3.98019 0
-153.053 -3.97943 0
-151.426 -3.98195 0
-149.797 -3.98312 0
-148.166 -3.98609 0
-146.539 -3.98639 0
-144.91 -3.9854 0
-143.281 -3.98801 0
-141.652 -3.98924 0
-140.026 -3.9913 0
-138.398 -3.99291 0
-136.77 -3.99548 0
-135.14 -3.99622 0
-133.509 -3.99891 0
-131.88 -4.00011 0
-130.251 -3.99989 0
-128.621 -4.00062 0
-126.992 -4.00209 0
-125.366 -4.00248 0
-123.739 -4.00389 0
-122.11 -4.0054 0
-120.482 -4.00582 0
-118.853 -4.00711 0
-117.225 -4.0097 0
-115.596 -4.01044 0
-113.969 -4.01287 0
-112.342 -4.01533 0
-110.714 -4.01549 0
-109.084 -4.01511 0
-107.456 -4.01728 0
-105.828 -4.01761 0
-104.199 -4.01851 0
-102.571 -4.0208 0
-100.941 -4.02306 0
-99.3126 -4.026 0
-97.686 -4.0253 0
-96.0578 -4.02718 0
-94.4305 -4.03051 0
-92.8023 -4.02886 0
-91.1724 -4.03342 0
-89.5453 -4.03306 0
-87.9156 -4.03382 0
-86.288 -4.03475 0
-84.6602 -4.03679 0
-83.0309 -4.03757 0
-81.402 -4.03905 0
-79.7756 -4.04054 0
-78.1484 -4.0407 0
-76.5197 -4.04127 0
-74.8912 -4.04117 0
-73.2629 -4.04053 0
-71.6347 -4.04167 0
-70.007 -4.04366 0
-68.3782 -4.04414 0
-66.7509 -4.04421 0
-65.1217 -4.04531 0
-63.4933 -4.04535 0
-61.8651 -4.04765 0
-60.2373 -4.04748 0
-58.6094 -4.04812 0
-56.9809 -4.04936 0
-55.3535 -4.04754 0
-53.7239 -4.05215 0
-52.0962 -4.05255 0
-50.4691 -4.05263 0
-48.8406 -4.05255 0
-47.2138 -4.05337 0
-45.5843 -4.05324 0
-43.957 -4.05544 0
-42.3289 -4.05405 0
-40.7003 -4.05512 0
-39.073 -4.05449 0
-37.446 -4.05427 0
-35.817 -4.05554 0
-34.1883 -4.05541 0
-32.5614 -4.05551 0
-30.9337 -4.05574 0
-29.3046 -4.0574 0
-27.676 -4.05612 0
-26.0468 -4.05576 0
-24.4214 -4.05808 0
-22.7908 -4.06098 0
-21.1641 -4.06069 0
-19.5366 -4.06082 0
-17.9087 -4.06112 0
-16.2799 -4.05925 0
-14.6528 -4.06026 0
-13.0251 -4.05999 0
-11.3942 -4.05965 0
-9.76559 -4.06104 0
-8.13971 -4.06067 0
-6.51056 -4.06219 0
-4.88414 -4.06262 0
-3.25593 -4.06425 0
-1.62777 -4.06448 0
0 -4.06205 0
-1105.82 65.3935 0
-1105.43 58.2456 0
-1105.18 51.5298 0
-1104.9 45.108 0
-1104.6 38.9669 0
-1104.32 33.1002 0
-1104.01 27.519 0
-1103.64 22.234 0
-1103.2 17.2796 0
-1102.71 12.6943 0
-1102.19 8.49199 0
-1101.65 4.67136 0
-1101.08 1.22394 0
-1100.5 -1.86484 0
-1099.9 -4.61345 0
-1099.27 -7.04453 0
-1098.63 -9.18274 0
-1097.96 -11.0528 0
-1097.26 -12.6788 0
-1096.53 -14.0839 0
-1095.78 -15.2896 0
-1094.99 -16.3142 0
-1094.17 -17.1756 0
-1093.32 -17.8893 0
-1092.44 -18.4693 0
-1091.53 -18.9278 0
-1090.59 -19.2763 0
-1089.62 -19.5237 0
-1088.63 -19.679 0
-1087.61 -19.75 0
-1086.56 -19.7435 0
-1085.49 -19.6654 0
-1084.39 -19.5214 0
-1083.27 -19.3167 0
-1082.13 -19.056 0
-1080.96 -18.7437 0
-1079.77 -18.3843 0
-1078.55 -17.9812 0
-1077.31 -17.539 0
-1076.05 -17.0606 0
-1074.77 -16.5496 0
-1073.47 -16.01 0
-1072.15 -15.4449 0
-1070.8 -14.8572 0
-1069.44 -14.2506 0
-1068.05 -13.6275 0
-1066.65 -12.9911 0
-1065.22 -12.344 0
-1063.78 -11.6892 0
-1062.32 -11.0287 0
-1060.85 -10.3652 0
-1059.36 -9.70093 0
-1057.85 -9.03809 0
-1056.32 -8.3786 0
-1054.79 -7.7244 0
-1053.23 -7.07737 0
-1051.67 -6.43896 0
-1050.09 -5.81038 0
-1048.5 -5.19354 0
-1046.9 -4.58971 0
-1045.28 -4.0003 0
-1043.66 -3.42537 0
-1042.03 -2.86709 0
-1040.38 -2.32569 0
-1038.73 -1.80207 0
-1037.07 -1.29668 0
-1035.41 -0.810466 0
-1033.73 -0.34404 0
-1032.05 0.10294 0
-1030.37 0.529164 0
-1028.68 0.93476 0
-1026.98 1.31931 0
-1025.28 1.68292 0
-1023.57 2.02524 0
-1021.86 2.3465 0
-1020.15 2.64633 0
-1018.44 2.92534 0
-1016.72 3.18329 0
-1015 3.42018 0
-1013.28 3.63652 0
-1011.56 3.8328 0
-1009.84 4.00895 0
-1008.11 4.16518 0
-1006.39 4.30197 0
-1004.67 4.41994 0
-1002.94 4.5195 0
-1001.22 4.60072 0
-999.498 4.66424 0
-997.776 4.71102 0
-996.057 4.74123 0
-994.339 4.75536 0
-992.622 4.75366 0
-990.907 4.73756 0
-989.194 4.70693 0
-987.483 4.66239 0
-985.774 4.60479 0
-984.067 4.53462 0
-982.363 4.45263 0
-980.662 4.35928 0
-978.963 4.25537 0
-977.267 4.14088 0
-975.574 4.01727 0
-973.883 3.88461 0