<?xml version="1.0"?>
<VTKFile type="StructuredGrid"  version="0.1" byte_order="LittleEndian" compressor="vtkZLibDataCompressor">
  <StructuredGrid WholeExtent="0 700 0 30 0 0">
    <Piece Extent="0 700 0 30 0 0">
      <PointData Vectors="Velocity">
        <DataArray type="Float32" Name="Velocity" NumberOfComponents="3" format="ascii">
-1087.5 56.3542 0
-1087.72 49.8646 0
-1088 43.5608 0
-1088.31 37.5659 0
-1088.6 31.9149 0
-1088.82 26.5244 0
-1089.04 21.3337 0
-1089.3 16.4292 0
-1089.58 11.8962 0
-1089.82 7.75465 0
-1090.04 3.99754 0
-1090.23 0.614917 0
-1090.37 -2.40779 0
-1090.45 -5.08833 0
-1090.48 -7.44851 0
-1090.43 -9.51229 0
-1090.31 -11.3044 0
-1090.12 -12.8489 0
-1089.85 -14.1691 0
-1089.5 -15.2861 0
-1089.08 -16.2199 0
-1088.59 -16.9889 0
-1088.03 -17.6096 0
-1087.41 -18.0965 0
-1086.73 -18.4642 0
-1086 -18.7244 0
-1085.21 -18.8877 0
-1084.37 -18.9646 0
-1083.49 -18.9634 0
-1082.56 -18.8918 0
-1081.6 -18.7572 0
-1080.59 -18.5648 0
-1079.55 -18.3205 0
-1078.47 -18.0294 0
-1077.36 -17.6973 0
-1076.22 -17.3274 0
-1075.05 -16.9236 0
-1073.84 -16.4901 0
-1072.61 -16.0307 0
-1071.34 -15.5483 0
-1070.05 -15.0458 0
-1068.73 -14.5272 0
-1067.39 -13.9948 0
-1066.02 -13.4513 0
-1064.63 -12.8992 0
-1063.21 -12.3419 0
-1061.77 -11.7807 0
-1060.31 -11.2181 0
-1058.82 -10.657 0
-1057.32 -10.099 0
-1055.79 -9.54558 0
-1054.25 -8.99801 0
-1052.7 -8.45929 0
-1051.12 -7.92975 0
-1049.53 -7.41229 0
-1047.92 -6.90685 0
-1046.3 -6.41527 0
-1044.67 -5.9371 0
-1043.03 -5.47501 0
-1041.37 -5.02876 0
-1039.71 -4.60021 0
-1038.03 -4.1887 0
-1036.35 -3.79558 0
-1034.65 -3.42147 0
-1032.95 -3.06487 0
-1031.25 -2.72868 0
-1029.54 -2.41186 0
-1027.82 -2.1146 0
-1026.1 -1.83684 0
-1024.37 -1.57864 0
-1022.64 -1.34047 0
-1020.91 -1.12151 0
-1019.18 -0.922479 0
-1017.44 -0.741475 0
-1015.7 -0.579584 0
-1013.96 -0.436983 0
-1012.23 -0.313375 0
-1010.49 -0.206147 0
-1008.75 -0.117047 0
-1007.01 -0.0447738 0
-1005.28 0.0111583 0
-1003.54 0.0509051 0
-1001.81 0.0752634 0
-1000.08 0.0851059 0
-998.352 0.0797488 0
-996.627 0.0615105 0
-994.905 0.0297712 0
-993.186 -0.01585 0
-991.47 -0.0719642 0
-989.758 -0.140048 0
-988.049 -0.219148 0
-986.344 -0.308307 0
-984.643 -0.406215 0
-982.945 -0.512722 0
-981.252 -0.628471 0
-979.562 -0.750898 0
-977.876 -0.881439 0
-976.195 -1.01854 0
-974.518 -1.16073 0
-972.845 -1.30775 0
-971.175 -1.46056 0
-969.51 -1.61717 0
-967.849 -1.77622 0
-966.192 -1.93914 0
-964.538 -2.10441 0
-962.89 -2.27125 0
-961.243 -2.43982 0
-959.601 -2.60863 0
-957.963 -2.77871 0
-956.329 -2.94806 0
-954.697 -3.11777 0
-953.069 -3.28608 0
-951.445 -3.45363 0
-949.823 -3.61875 0
-948.204 -3.78202 0
-946.588 -3.94246 0
-944.976 -4.10126 0
-943.365 -4.25584 0
-941.757 -4.40867 0
-940.151 -4.55669 0
-938.547 -4.70158 0
-936.945 -4.84217 0
-935.345 -4.97861 0
-933.748 -5.11093 0
-932.152 -5.23825 0
-930.558 -5.36022 0
-928.964 -5.47917 0
-927.372 -5.59213 0
-925.78 -5.70003 0
-924.191 -5.80266 0
-922.602 -5.89982 0
-921.013 -5.99182 0
-919.427 -6.07911 0
-917.84 -6.16158 0
-916.254 -6.23878 0
-914.668 -6.30912 0
-913.083 -6.37544 0
-911.498 -6.43525 0
-909.913 -6.49144 0
-908.327 -6.5409 0
-906.742 -6.58689 0
-905.156 -6.62589 0
-903.571 -6.66146 0
-901.984 -6.69174 0
-900.398 -6.7172 0
-898.81 -6.73693 0
-897.223 -6.7537 0
-895.635 -6.76419 0
-894.045 -6.77178 0
-892.455 -6.77571 0
-890.865 -6.7749 0
-889.274 -6.76985 0
-887.683 -6.76169 0
-886.09 -6.74888 0
-884.496 -6.73305 0
-882.901 -6.71468 0
-881.307 -6.69246 0
-879.711 -6.66663 0
-878.114 -6.63745 0
-876.516 -6.6075 0
-874.916 -6.573 0
-873.315 -6.53672 0
-871.715 -6.49954 0
-870.112 -6.45864 0
-868.507 -6.41627 0
-866.903 -6.37298 0
-865.299 -6.32614 0
-863.692 -6.2795 0
-862.084 -6.23094 0
-860.475 -6.18105 0
-858.865 -6.13025 0
-857.254 -6.07833 0
-855.642 -6.02436 0
-854.03 -5.96986 0
-852.415 -5.91665 0
-850.8 -5.86251 0
-849.185 -5.80729 0
-847.568 -5.75359 0
-845.95 -5.69887 0
-844.332 -5.64348 0
-842.713 -5.58854 0
-841.093 -5.53448 0
-839.473 -5.48111 0
-837.852 -5.42824 0
-836.229 -5.37566 0
-834.606 -5.32248 0
-832.983 -5.27112 0
-831.359 -5.22041 0
-829.734 -5.17091 0
-828.108 -5.1236 0
-826.482 -5.0757 0
-824.856 -5.02908 0
-823.228 -4.98369 0
-821.601 -4.93976 0
-819.973 -4.89626 0
-818.345 -4.85375 0
-816.716 -4.81247 0
-815.087 -4.77439 0
-813.457 -4.73653 0
-811.828 -4.69944 0
-810.198 -4.6653 0
-808.567 -4.63247 0
-806.936 -4.60068 0
-805.305 -4.57123 0
-803.675 -4.54255 0
-802.043 -4.51568 0
-800.412 -4.48988 0
-798.781 -4.46546 0
-797.15 -4.44297 0
-795.519 -4.422 0
-793.887 -4.40281 0
-792.256 -4.38542 0
-790.625 -4.3687 0
-788.994 -4.35409 0
-787.364 -4.34011 0
-785.733 -4.32853 0
-784.101 -4.31822 0
-782.47 -4.30829 0
-780.84 -4.2998 0
-779.209 -4.29404 0
-777.579 -4.28791 0
-775.949 -4.28443 0
-774.318 -4.28203 0
-772.688 -4.28126 0
-771.058 -4.27993 0
-769.43 -4.28237 0
-767.8 -4.28392 0
-766.172 -4.28756 0
-764.542 -4.29157 0
-762.914 -4.29736 0
-761.286 -4.30287 0
-759.659 -4.30998 0
-758.031 -4.31725 0
-756.404 -4.32628 0
-754.777 -4.33413 0
-753.151 -4.34524 0
-751.524 -4.35713 0
-749.899 -4.36795 0
-748.273 -4.38034 0
-746.648 -4.39307 0
-745.022 -4.40536 0
-743.398 -4.4194 0
-741.772 -4.43513 0
-740.149 -4.44865 0
-738.525 -4.46432 0
-736.902 -4.48005 0
-735.278 -4.49472 0
-733.656 -4.50982 0
-732.033 -4.52487 0
-730.41 -4.54087 0
-728.787 -4.55717 0
-727.165 -4.57422 0
-725.543 -4.59097 0
-723.922 -4.60731 0
-722.301 -4.62365 0
-720.68 -4.64166 0
-719.06 -4.65658 0
-717.439 -4.67361 0
-715.819 -4.68848 0
-714.199 -4.70776 0
-712.58 -4.72158 0
-710.959 -4.73731 0
-709.34 -4.75324 0
-707.721 -4.76674 0
-706.101 -4.7815 0
-704.483 -4.79663 0
-702.863 -4.81 0
-701.244 -4.82549 0
-699.627 -4.8382 0
-698.007 -4.85273 0
-696.39 -4.86543 0
-694.772 -4.87735 0
-693.154 -4.89073 0
-691.537 -4.90252 0
-689.919 -4.91354 0
-688.302 -4.92377 0
-686.684 -4.93382 0
-685.067 -4.94423 0
-683.449 -4.95475 0
-681.831 -4.96533 0
-680.215 -4.97417 0
-678.596 -4.98228 0
-676.979 -4.99099 0
-675.363 -4.9979 0
-673.745 -5.0036 0
-672.128 -5.01187 0
-670.511 -5.01939 0
-668.894 -5.02577 0
-667.277 -5.03028 0
-665.66 -5.03589 0
-664.043 -5.03945 0
-662.425 -5.044 0
-660.807 -5.04635 0
-659.191 -5.04911 0
-657.574 -5.05295 0
-655.957 -5.054 0
-654.34 -5.05519 0
-652.721 -5.05763 0
-651.105 -5.05973 0
-649.488 -5.05979 0
-647.871 -5.05935 0
-646.254 -5.0604 0
-644.636 -5.05958 0
-643.017 -5.05867 0
-641.4 -5.05635 0
-639.784 -5.05468 0
-638.165 -5.05328 0
-636.547 -5.05105 0
-634.929 -5.04831 0
-633.311 -5.04675 0
-631.694 -5.04461 0
-630.075 -5.04135 0
-628.456 -5.03831 0
-626.837 -5.03379 0
-625.22 -5.0299 0
-623.601 -5.02356 0
-621.983 -5.02028 0
-620.364 -5.016 0
-618.745 -5.00909 0
-617.127 -5.00569 0
-615.507 -5.00127 0
-613.888 -4.99322 0
-612.268 -4.98914 0
-610.65 -4.98567 0
-609.031 -4.97742 0
-607.412 -4.97027 0
-605.792 -4.96707 0
-604.173 -4.9608 0
-602.553 -4.95285 0
-600.933 -4.94797 0
-599.315 -4.94186 0
-597.693 -4.9357 0
-596.074 -4.92775 0
-594.454 -4.92256 0
-592.835 -4.91623 0
-591.214 -4.90993 0
-589.593 -4.90483 0
-587.974 -4.8993 0
-586.353 -4.89309 0
-584.732 -4.88541 0
-583.112 -4.88005 0
-581.492 -4.87559 0
-579.871 -4.86849 0
-578.25 -4.86386 0
-576.629 -4.85647 0
-575.01 -4.8502 0
-573.389 -4.84512 0
-571.769 -4.83966 0
-570.148 -4.83499 0
-568.527 -4.82767 0
-566.905 -4.82543 0
-565.284 -4.81936 0
-563.662 -4.81438 0
-562.04 -4.81021 0
-560.42 -4.80594 0
-558.8 -4.80124 0
-557.178 -4.79807 0
-555.557 -4.79258 0
-553.936 -4.78848 0
-552.315 -4.78406 0
-550.692 -4.77931 0
-549.071 -4.77539 0
-547.45 -4.77064 0
-545.83 -4.76558 0
-544.208 -4.76465 0
-542.587 -4.76311 0
-540.966 -4.75774 0
-539.344 -4.75478 0
-537.722 -4.75266 0
-536.101 -4.7503 0
-534.48 -4.74595 0
-532.858 -4.74273 0
-531.237 -4.74139 0
-529.615 -4.74034 0
-527.994 -4.73954 0
-526.373 -4.73794 0
-524.751 -4.73686 0
-523.131 -4.73547 0
-521.51 -4.73467 0
-519.888 -4.73333 0
-518.269 -4.73255 0
-516.649 -4.73089 0
-515.026 -4.73006 0
-513.405 -4.73055 0
-511.783 -4.72875 0
-510.162 -4.7275 0
-508.541 -4.72893 0
-506.921 -4.72919 0
-505.3 -4.72878 0
-503.679 -4.72838 0
-502.057 -4.72885 0
-500.435 -4.73079 0
-498.814 -4.73205 0
-497.193 -4.73111 0
-495.572 -4.73014 0
-493.952 -4.731 0
-492.332 -4.73082 0
-490.711 -4.73134 0
-489.091 -4.7323 0
-487.47 -4.73396 0
-485.85 -4.73612 0
-484.228 -4.73656 0
-482.61 -4.73709 0
-480.989 -4.73683 0
-479.369 -4.73944 0
-477.746 -4.73926 0
-476.126 -4.74204 0
-474.507 -4.74278 0
-472.889 -4.74332 0
-471.267 -4.74604 0
-469.647 -4.74895 0
-468.026 -4.74999 0
-466.405 -4.74775 0
-464.784 -4.75061 0
-463.163 -4.75294 0
-461.543 -4.7582 0
-459.923 -4.76078 0
-458.301 -4.7615 0
-456.682 -4.76246 0
-455.061 -4.76289 0
-453.442 -4.76734 0
-451.824 -4.76748 0
-450.205 -4.7685 0
-448.581 -4.77067 0
-446.962 -4.77442 0
-445.342 -4.77662 0
-443.723 -4.77568 0
-442.103 -4.77861 0
-440.483 -4.78136 0
-438.861 -4.78311 0
-437.241 -4.78422 0
-435.62 -4.78591 0
-434.001 -4.789 0
-432.383 -4.79084 0
-430.765 -4.79409 0
-429.146 -4.79374 0
-427.524 -4.79555 0
-425.904 -4.7952 0
-424.285 -4.79733 0
-422.664 -4.80047 0
-421.044 -4.80232 0
-419.424 -4.80265 0
-417.804 -4.80508 0
-416.184 -4.80587 0
-414.565 -4.80826 0
-412.946 -4.80869 0
-411.326 -4.80942 0
-409.705 -4.81249 0
-408.086 -4.81122 0
-406.468 -4.81276 0
-404.846 -4.81321 0
-403.227 -4.81389 0
-401.606 -4.81508 0
-399.987 -4.81662 0
-398.367 -4.81594 0
-396.748 -4.81801 0
-395.129 -4.8201 0
-393.509 -4.82168 0
-391.891 -4.82022 0
-390.272 -4.81911 0
-388.653 -4.81847 0
-387.032 -4.82051 0
-385.411 -4.82014 0
-383.79 -4.82307 0
-382.172 -4.82172 0
-380.553 -4.82293 0
-378.934 -4.82394 0
-377.315 -4.82075 0
-375.697 -4.82267 0
-374.076 -4.82319 0
-372.456 -4.8213 0
-370.838 -4.82293 0
-369.22 -4.82726 0
-367.599 -4.8238 0
-365.98 -4.82496 0
-364.358 -4.82662 0
-362.738 -4.82543 0
-361.119 -4.82424 0
-359.499 -4.82452 0
-357.881 -4.82378 0
-356.259 -4.82435 0
-354.64 -4.82447 0
-353.019 -4.82369 0
-351.401 -4.82429 0
-349.783 -4.8234 0
-348.162 -4.82222 0
-346.541 -4.82194 0
-344.923 -4.82279 0
-343.306 -4.82163 0
-341.686 -4.82005 0
-340.066 -4.81642 0
-338.447 -4.81713 0
-336.827 -4.81848 0
-335.207 -4.81945 0
-333.59 -4.81804 0
-331.968 -4.81494 0
-330.35 -4.81335 0
-328.73 -4.81326 0
-327.109 -4.81428 0
-325.489 -4.81349 0
-323.87 -4.81489 0
-322.25 -4.81492 0
-320.633 -4.81175 0
-319.011 -4.8122 0
-317.391 -4.81172 0
-315.772 -4.80917 0
-314.152 -4.81012 0
-312.533 -4.80869 0
-310.913 -4.81174 0
-309.294 -4.80997 0
-307.675 -4.80953 0
-306.054 -4.8098 0
-304.436 -4.81007 0
-302.817 -4.80886 0
-301.196 -4.80847 0
-299.577 -4.80866 0
-297.958 -4.80969 0
-296.339 -4.80437 0
-294.72 -4.80615 0
-293.096 -4.80439 0
-291.476 -4.80464 0
-289.857 -4.80348 0
-288.24 -4.80114 0
-286.621 -4.79887 0
-284.998 -4.8003 0
-283.379 -4.79819 0
-281.76 -4.79697 0
-280.14 -4.79783 0
-278.522 -4.79539 0
-276.902 -4.79774 0
-275.281 -4.79614 0
-273.661 -4.79555 0
-272.04 -4.79616 0
-270.422 -4.79574 0
-268.802 -4.79515 0
-267.182 -4.79452 0
-265.562 -4.79546 0
-263.944 -4.79698 0
-262.323 -4.79482 0
-260.702 -4.7935 0
-259.085 -4.79252 0
-257.465 -4.79366 0
-255.842 -4.79306 0
-254.225 -4.79321 0
-252.605 -4.79257 0
-250.985 -4.79488 0
-249.364 -4.79322 0
-247.745 -4.79038 0
-246.123 -4.79382 0
-244.503 -4.79254 0
-242.886 -4.79585 0
-241.266 -4.7943 0
-239.648 -4.79256 0
-238.029 -4.79367 0
-236.407 -4.79324 0
-234.786 -4.79268 0
-233.165 -4.79313 0
-231.546 -4.79306 0
-229.926 -4.79356 0
-228.306 -4.7953 0
-226.687 -4.79504 0
-225.067 -4.79547 0
-223.448 -4.79152 0
-221.827 -4.79241 0
-220.209 -4.79168 0
-218.589 -4.79153 0
-216.969 -4.79189 0
-215.35 -4.79354 0
-213.729 -4.79474 0
-212.112 -4.79413 0
-210.493 -4.79284 0
-208.874 -4.78846 0
-207.254 -4.78975 0
-205.633 -4.79001 0
-204.013 -4.79123 0
-202.395 -4.79547 0
-200.775 -4.79343 0
-199.153 -4.79283 0
-197.534 -4.79519 0
-195.915 -4.79444 0
-194.296 -4.7934 0
-192.678 -4.79568 0
-191.06 -4.79907 0
-189.44 -4.7975 0
-187.821 -4.79655 0
-186.201 -4.79514 0
-184.581 -4.79451 0
-182.964 -4.79833 0
-181.344 -4.7941 0
-179.726 -4.79691 0
-178.106 -4.79664 0
-176.485 -4.79616 0
-174.867 -4.79665 0
-173.249 -4.79611 0
-171.627 -4.7945 0
-170.009 -4.79619 0
-168.39 -4.79492 0
-166.768 -4.79721 0
-165.149 -4.79915 0
-163.53 -4.80084 0
-161.912 -4.80191 0
-160.294 -4.79956 0
-158.674 -4.79984 0
-157.054 -4.79878 0
-155.435 -4.80039 0
-153.817 -4.79766 0
-152.199 -4.79878 0
-150.577 -4.79762 0
-148.957 -4.79767 0
-147.336 -4.79849 0
-145.719 -4.79999 0
-144.098 -4.79617 0
-142.478 -4.79853 0
-140.861 -4.79894 0
-139.243 -4.79749 0
-137.623 -4.79935 0
-136.005 -4.7994 0
-134.383 -4.79999 0
-132.764 -4.80182 0
-131.143 -4.79898 0
-129.526 -4.79825 0
-127.907 -4.79978 0
-126.288 -4.79801 0
-124.669 -4.79695 0
-123.049 -4.79474 0
-121.429 -4.79591 0
-119.811 -4.79935 0
-118.193 -4.80325 0
-116.576 -4.79924 0
-114.955 -4.80003 0
-113.337 -4.79948 0
-111.718 -4.80048 0
-110.097 -4.79983 0
-108.478 -4.80023 0
-106.858 -4.80097 0
-105.239 -4.80213 0
-103.62 -4.80326 0
-101.999 -4.80334 0
-100.38 -4.80336 0
-98.7609 -4.80252 0
-97.1427 -4.80209 0
-95.5235 -4.8021 0
-93.9048 -4.8025 0
-92.2861 -4.80184 0
-90.6643 -4.80153 0
-89.0465 -4.8026 0
-87.4276 -4.80316 0
-85.8084 -4.80262 0
-84.1919 -4.80174 0
-82.5713 -4.80243 0
-80.9528 -4.80323 0
-79.3346 -4.80425 0
-77.7148 -4.80378 0
-76.0944 -4.80308 0
-74.4769 -4.80087 0
-72.8575 -4.80381 0
-71.2382 -4.80401 0
-69.6194 -4.80408 0
-68.0011 -4.80239 0
-66.3815 -4.802 0
-64.7641 -4.80211 0
-63.1438 -4.80274 0
-61.5261 -4.80274 0
-59.9065 -4.80431 0
-58.2875 -4.80241 0
-56.6689 -4.80305 0
-55.0509 -4.80348 0
-53.4307 -4.8023 0
-51.8129 -4.80282 0
-50.1936 -4.80367 0
-48.5732 -4.80467 0
-46.9545 -4.80411 0
-45.3349 -4.80082 0
-43.7147 -4.8019 0
-42.0952 -4.80131 0
-40.4778 -4.80087 0
-38.8593 -4.80338 0
-37.2383 -4.80405 0
-35.6201 -4.80264 0
-34.0001 -4.79973 0
-32.3812 -4.80157 0
-30.7634 -4.80036 0
-29.1445 -4.80062 0
-27.5239 -4.80109 0
-25.9071 -4.80006 0
-24.2862 -4.80174 0
-22.6663 -4.80145 0
-21.0442 -4.79811 0
-19.4249 -4.7997 0
-17.8092 -4.7978 0
-16.1894 -4.79666 0
-14.5675 -4.79801 0
-12.9492 -4.79844 0
-11.3319 -4.79687 0
-9.71325 -4.79824 0
-8.09372 -4.79722 0
-6.4759 -4.79854 0
-4.85594 -4.79986 0
-3.23813 -4.79825 0
-1.61967 -4.79633 0
0 -4.79637 0
-1094 56.6124 0
-1094.05 50.0637 0
-1094.09 43.7335 0
-1094.09 37.7216 0
-1094.08 32.056 0
-1094.12 26.6572 0
-1094.14 21.4608 0
-1094.07 16.5497 0
-1093.96 12.011 0
-1093.83 7.86683 0
-1093.67 4.1139 0
-1093.48 0.743319 0
-1093.27 -2.25829 0
-1093.02 -4.9078 0
-1092.73 -7.22816 0
-1092.4 -9.24441 0
-1092.01 -10.9833 0
-1091.58 -12.4714 0
-1091.09 -13.7332 0
-1090.54 -14.7914 0
-1089.95 -15.6671 0
-1089.3 -16.3798 0
-1088.6 -16.9463 0
-1087.85 -17.3819 0
-1087.05 -17.7001 0
-1086.21 -17.9139 0
-1085.33 -18.0332 0
-1084.41 -18.069 0
-1083.46 -18.0284 0
-1082.46 -17.9196 0
-1081.44 -17.7494 0
-1080.38 -17.5229 0
-1079.29 -17.2457 0
-1078.17 -16.9233 0
-1077.02 -16.5605 0
-1075.84 -16.1612 0
-1074.63 -15.7286 0
-1073.4 -15.2672 0
-1072.14 -14.7806 0
-1070.86 -14.2717 0
-1069.55 -13.7437 0
-1068.22 -13.2001 0
-1066.86 -12.6433 0
-1065.48 -12.0762 0
-1064.08 -11.5018 0
-1062.66 -10.9224 0
-1061.22 -10.3398 0
-1059.75 -9.75778 0
-1058.27 -9.1773 0
-1056.77 -8.60029 0
-1055.26 -8.02912 0
-1053.72 -7.46575 0
-1052.17 -6.91057 0
-1050.61 -6.36649 0
-1049.03 -5.83435 0
-1047.44 -5.31568 0
-1045.83 -4.81093 0
-1044.21 -4.32168 0
-1042.58 -3.84854 0
-1040.95 -3.39218 0
-1039.3 -2.95412 0
-1037.64 -2.53373 0
-1035.97 -2.13295 0
-1034.3 -1.75094 0
-1032.62 -1.38888 0
-1030.93 -1.04659 0
-1029.24 -0.724289 0
-1027.54 -0.422471 0
-1025.84 -0.140724 0
-1024.13 0.120396 0
-1022.42 0.362057 0
-1020.71 0.583291 0
-1018.99 0.784607 0
-1017.27 0.966827 0
-1015.56 1.12967 0
-1013.84 1.27256 0
-1012.11 1.39704 0
-1010.39 1.50306 0
-1008.67 1.59193 0
-1006.95 1.66369 0
-1005.23 1.71829 0
-1003.51 1.75682 0
-1001.8 1.77908 0
-1000.08 1.78645 0
-998.366 1.77953 0
-996.654 1.75824 0
-994.945 1.72359 0
-993.238 1.67589 0
-991.534 1.61604 0
-989.832 1.54474 0
-988.134 1.46253 0
-986.439 1.37079 0
-984.746 1.26865 0
-983.056 1.15863 0
-981.37 1.03973 0
-979.688 0.912918 0
-978.009 0.778812 0
-976.333 0.638347 0
-974.661 0.492461 0
-972.993 0.340844 0
-971.329 0.184512 0
-969.666 0.0245424 0
-968.008 -0.138568 0
-966.354 -0.304847 0
-964.703 -0.473701 0
-963.055 -0.644265 0
-961.41 -0.816104 0
-959.769 -0.988417 0
-958.131 -1.16182 0
-956.496 -1.33442 0
-954.864 -1.50682 0
-953.235 -1.67818 0
-951.609 -1.84861 0
-949.985 -2.01656 0
-948.365 -2.18246 0
-946.746 -2.34597 0
-945.13 -2.50649 0
-943.517 -2.66403 0
-941.905 -2.81819 0
-940.295 -2.96892 0
-938.687 -3.11598 0
-937.082 -3.25784 0
-935.478 -3.39632 0
-933.875 -3.53063 0
-932.275 -3.65916 0
-930.676 -3.78322 0
-929.077 -3.90211 0
-927.48 -4.01671 0
-925.884 -4.12568 0
-924.289 -4.22941 0
-922.695 -4.32683 0
-921.102 -4.42026 0
-919.51 -4.50812 0
-917.918 -4.5906 0
-916.327 -4.66821 0
-914.735 -4.739 0
-913.145 -4.80556 0
-911.555 -4.86583 0
-909.964 -4.92162 0
-908.373 -4.97139 0
-906.783 -5.01671 0
-905.193 -5.05587 0
-903.602 -5.0914 0
-902.011 -5.12116 0
-900.42 -5.14625 0
-898.828 -5.16613 0
-897.236 -5.18199 0
-895.643 -5.19231 0
-894.05 -5.19875 0
-892.456 -5.20183 0
-890.862 -5.20066 0
-889.268 -5.19459 0
-887.673 -5.18577 0
-886.076 -5.17253 0
-884.479 -5.15597 0
-882.882 -5.13578 0
-881.283 -5.11278 0
-879.684 -5.08655 0
-878.084 -5.05696 0
-876.483 -5.02536 0
-874.881 -4.98982 0
-873.279 -4.9536 0
-871.675 -4.91439 0
-870.07 -4.87265 0
-868.465 -4.82945 0
-866.858 -4.78478 0
-865.252 -4.73749 0
-863.644 -4.6897 0
-862.035 -4.64021 0
-860.425 -4.5893 0
-858.814 -4.53681 0
-857.202 -4.4845 0
-855.589 -4.43042 0
-853.976 -4.37519 0
-852.362 -4.32023 0
-850.747 -4.2654 0
-849.131 -4.20988 0
-847.514 -4.15438 0
-845.897 -4.09916 0
-844.279 -4.04318 0
-842.66 -3.98779 0
-841.04 -3.93225 0
-839.42 -3.87802 0
-837.799 -3.82446 0
-836.177 -3.77153 0
-834.555 -3.71817 0
-832.932 -3.6655 0
-831.309 -3.61496 0
-829.685 -3.56535 0
-828.061 -3.51561 0
-826.435 -3.46842 0
-824.81 -3.42168 0
-823.184 -3.37529 0
-821.558 -3.33091 0
-819.931 -3.28746 0
-818.303 -3.24398 0
-816.676 -3.20337 0
-815.049 -3.16386 0
-813.421 -3.12549 0
-811.792 -3.08949 0
-810.164 -3.05479 0
-808.536 -3.02119 0
-806.906 -2.9896 0
-805.276 -2.95958 0
-803.647 -2.93096 0
-802.017 -2.90341 0
-800.388 -2.87746 0
-798.758 -2.85324 0
-797.128 -2.83177 0
-795.499 -2.81026 0
-793.869 -2.7909 0
-792.239 -2.77323 0
-790.61 -2.75652 0
-788.981 -2.74247 0
-787.351 -2.72836 0
-785.721 -2.71623 0
-784.091 -2.70583 0
-782.462 -2.69664 0
-780.832 -2.68845 0
-779.203 -2.6823 0
-777.575 -2.67724 0
-775.945 -2.67408 0
-774.316 -2.67114 0
-772.687 -2.66989 0
-771.059 -2.67081 0
-769.43 -2.6717 0
-767.803 -2.67403 0
-766.176 -2.67737 0
-764.548 -2.68179 0
-762.92 -2.68784 0
-761.293 -2.69389 0
-759.666 -2.70224 0
-758.038 -2.70813 0
-756.412 -2.71757 0
-754.786 -2.72717 0
-753.161 -2.73773 0
-751.535 -2.74903 0
-749.91 -2.76149 0
-748.285 -2.77302 0
-746.66 -2.78645 0
-745.035 -2.79974 0
-743.411 -2.81385 0
-741.787 -2.829 0
-740.163 -2.84333 0
-738.539 -2.85842 0
-736.916 -2.87426 0
-735.293 -2.8903 0
-733.671 -2.90556 0
-732.048 -2.92177 0
-730.426 -2.93715 0
-728.804 -2.95395 0
-727.182 -2.97015 0
-725.56 -2.98775 0
-723.939 -3.00473 0
-722.318 -3.02218 0
-720.696 -3.03848 0
-719.076 -3.05467 0
-717.455 -3.07099 0
-715.835 -3.08766 0
-714.214 -3.1043 0
-712.595 -3.12087 0
-710.975 -3.13568 0
-709.355 -3.15141 0
-707.736 -3.16551 0
-706.116 -3.18073 0
-704.497 -3.19566 0
-702.877 -3.21002 0
-701.259 -3.22539 0
-699.64 -3.23775 0
-698.021 -3.2521 0
-696.402 -3.2657 0
-694.785 -3.27787 0
-693.166 -3.29031 0
-691.548 -3.30291 0
-689.93 -3.3138 0
-688.311 -3.32432 0
-686.694 -3.33457 0
-685.077 -3.34492 0
-683.459 -3.35495 0
-681.841 -3.36568 0
-680.223 -3.37479 0
-678.606 -3.38348 0
-676.987 -3.39169 0
-675.37 -3.39933 0
-673.752 -3.40577 0
-672.135 -3.41285 0
-670.517 -3.42005 0
-668.899 -3.42527 0
-667.282 -3.43085 0
-665.665 -3.43729 0
-664.047 -3.44003 0
-662.429 -3.44447 0
-660.811 -3.44736 0
-659.194 -3.45097 0
-657.577 -3.45315 0
-655.96 -3.45553 0
-654.342 -3.45687 0
-652.725 -3.45797 0
-651.106 -3.46046 0
-649.489 -3.46102 0
-647.871 -3.46055 0
-646.254 -3.46179 0
-644.635 -3.46013 0
-643.017 -3.45849 0
-641.398 -3.45704 0
-639.78 -3.45547 0
-638.161 -3.45314 0
-636.543 -3.45074 0
-634.927 -3.44914 0
-633.309 -3.44762 0
-631.691 -3.44436 0
-630.072 -3.4414 0
-628.453 -3.43733 0
-626.834 -3.43363 0
-625.215 -3.42896 0
-623.597 -3.42328 0
-621.978 -3.41989 0
-620.359 -3.41579 0
-618.741 -3.41071 0
-617.122 -3.40518 0
-615.503 -3.39951 0
-613.883 -3.39412 0
-612.264 -3.38826 0
-610.644 -3.38327 0
-609.025 -3.37762 0
-607.406 -3.37031 0
-605.785 -3.36472 0
-604.166 -3.35896 0
-602.546 -3.35147 0
-600.927 -3.34685 0
-599.308 -3.34068 0
-597.688 -3.33382 0
-596.068 -3.32666 0
-594.448 -3.32174 0
-592.828 -3.31524 0
-591.209 -3.30793 0
-589.588 -3.30217 0
-587.968 -3.29726 0
-586.348 -3.29039 0
-584.727 -3.2838 0
-583.106 -3.27807 0
-581.486 -3.2732 0
-579.866 -3.26582 0
-578.243 -3.26044 0
-576.623 -3.25437 0
-575.003 -3.24868 0
-573.384 -3.2428 0
-571.764 -3.23735 0
-570.143 -3.23184 0
-568.521 -3.22503 0
-566.901 -3.22173 0
-565.279 -3.21662 0
-563.658 -3.2105 0
-562.037 -3.20811 0
-560.417 -3.20288 0
-558.796 -3.19771 0
-557.174 -3.19441 0
-555.552 -3.18962 0
-553.931 -3.18541 0
-552.31 -3.18059 0
-550.689 -3.1773 0
-549.067 -3.17245 0
-547.446 -3.16748 0
-545.826 -3.1633 0
-544.206 -3.16164 0
-542.584 -3.15927 0
-540.961 -3.15552 0
-539.34 -3.15242 0
-537.72 -3.15039 0
-536.099 -3.14641 0
-534.478 -3.14184 0
-532.857 -3.14056 0
-531.236 -3.13907 0
-529.613 -3.13696 0
-527.992 -3.13684 0
-526.372 -3.13455 0
-524.751 -3.13437 0
-523.13 -3.13332 0
-521.509 -3.13195 0
-519.889 -3.1305 0
-518.268 -3.1309 0
-516.646 -3.12889 0
-515.025 -3.12823 0
-513.405 -3.1266 0
-511.783 -3.12545 0
-510.161 -3.12565 0
-508.542 -3.12586 0
-506.92 -3.12729 0
-505.299 -3.12625 0
-503.678 -3.1247 0
-502.056 -3.12642 0
-500.435 -3.12736 0
-498.814 -3.12912 0
-497.193 -3.12817 0
-495.573 -3.12775 0
-493.951 -3.12876 0
-492.331 -3.12775 0
-490.711 -3.12922 0
-489.091 -3.1299 0
-487.471 -3.13114 0
-485.849 -3.13297 0
-484.229 -3.13435 0
-482.609 -3.13368 0
-480.989 -3.13669 0
-479.37 -3.13692 0
-477.749 -3.13837 0
-476.13 -3.1406 0
-474.508 -3.1408 0
-472.889 -3.14201 0
-471.268 -3.14418 0
-469.647 -3.14774 0
-468.027 -3.14731 0
-466.407 -3.1468 0
-464.786 -3.14851 0
-463.167 -3.15067 0
-461.545 -3.15543 0
-459.925 -3.15864 0
-458.305 -3.15881 0
-456.684 -3.16017 0
-455.065 -3.16204 0
-453.445 -3.16358 0
-451.824 -3.16625 0
-450.204 -3.16601 0
-448.585 -3.16874 0
-446.965 -3.172 0
-445.345 -3.17353 0
-443.723 -3.17594 0
-442.105 -3.17843 0
-440.483 -3.17892 0
-438.863 -3.18053 0
-437.244 -3.18238 0
-435.625 -3.18559 0
-434.005 -3.1873 0
-432.385 -3.19083 0
-430.766 -3.19265 0
-429.146 -3.19115 0
-427.527 -3.19236 0
-425.905 -3.19371 0
-424.287 -3.19624 0
-422.667 -3.19883 0
-421.047 -3.20004 0
-419.425 -3.20118 0
-417.807 -3.20275 0
-416.186 -3.20568 0
-414.568 -3.20624 0
-412.947 -3.20785 0
-411.327 -3.20968 0
-409.708 -3.21144 0
-408.086 -3.20955 0
-406.467 -3.2117 0
-404.847 -3.21154 0
-403.226 -3.21301 0
-401.607 -3.21414 0
-399.988 -3.21526 0
-398.369 -3.21683 0
-396.749 -3.21646 0
-395.132 -3.2176 0
-393.512 -3.21981 0
-391.892 -3.21968 0
-390.272 -3.21837 0
-388.652 -3.21801 0
-387.032 -3.21817 0
-385.412 -3.21993 0
-383.793 -3.22017 0
-382.173 -3.22214 0
-380.554 -3.22164 0
-378.935 -3.22159 0
-377.316 -3.22039 0
-375.696 -3.2203 0
-374.077 -3.22142 0
-372.458 -3.22087 0
-370.84 -3.22326 0
-369.22 -3.2238 0
-367.599 -3.22324 0
-365.979 -3.22359 0
-364.36 -3.22427 0
-362.739 -3.22325 0
-361.119 -3.22267 0
-359.5 -3.22266 0
-357.881 -3.22248 0
-356.262 -3.22262 0
-354.641 -3.22316 0
-353.022 -3.22257 0
-351.403 -3.22196 0
-349.783 -3.2212 0
-348.163 -3.22159 0
-346.544 -3.21995 0
-344.925 -3.22169 0
-343.304 -3.22011 0
-341.684 -3.21816 0
-340.067 -3.21734 0
-338.447 -3.21628 0
-336.828 -3.21767 0
-335.207 -3.21527 0
-333.587 -3.21602 0
-331.967 -3.21397 0
-330.349 -3.21178 0
-328.73 -3.21353 0
-327.109 -3.21277 0
-325.49 -3.21412 0
-323.87 -3.21364 0
-322.249 -3.21266 0
-320.63 -3.21094 0
-319.01 -3.20899 0
-317.39 -3.21148 0
-315.771 -3.20888 0
-314.152 -3.20843 0
-312.533 -3.20984 0
-310.914 -3.20977 0
-309.293 -3.20867 0
-307.674 -3.20641 0
-306.056 -3.20709 0
-304.437 -3.20676 0
-302.816 -3.20768 0
-301.196 -3.20607 0
-299.576 -3.20704 0
-297.958 -3.20637 0
-296.338 -3.20462 0
-294.717 -3.20293 0
-293.097 -3.20225 0
-291.477 -3.20348 0
-289.857 -3.20209 0
-288.236 -3.20051 0
-286.617 -3.19855 0
-284.999 -3.19814 0
-283.379 -3.19629 0
-281.758 -3.19539 0
-280.138 -3.19628 0
-278.521 -3.19619 0
-276.901 -3.19571 0
-275.281 -3.19426 0
-273.661 -3.19389 0
-272.041 -3.19427 0
-270.42 -3.19534 0
-268.801 -3.19325 0
-267.181 -3.19353 0
-265.563 -3.19478 0
-263.942 -3.19392 0
-262.322 -3.19295 0
-260.703 -3.19249 0
-259.083 -3.19261 0
-257.462 -3.19139 0
-255.843 -3.19088 0
-254.223 -3.1922 0
-252.603 -3.1912 0
-250.983 -3.19297 0
-249.364 -3.19187 0
-247.746 -3.18992 0
-246.126 -3.19123 0
-244.505 -3.19236 0
-242.884 -3.19313 0
-241.265 -3.19301 0
-239.647 -3.19236 0
-238.028 -3.19196 0
-236.407 -3.19172 0
-234.786 -3.19148 0
-233.168 -3.19119 0
-231.547 -3.19089 0
-229.926 -3.19173 0
-228.307 -3.19278 0
-226.687 -3.1929 0
-225.066 -3.1927 0
-223.446 -3.19165 0
-221.827 -3.19104 0
-220.209 -3.19076 0
-218.591 -3.18915 0
-216.969 -3.19028 0
-215.35 -3.19262 0
-213.73 -3.19328 0
-212.109 -3.19151 0
-210.49 -3.19194 0
-208.872 -3.18883 0
-207.254 -3.18958 0
-205.635 -3.18992 0
-204.015 -3.191 0
-202.398 -3.19273 0
-200.776 -3.19283 0
-199.157 -3.19296 0
-197.535 -3.19473 0
-195.914 -3.19339 0
-194.297 -3.19366 0
-192.679 -3.19482 0
-191.06 -3.19713 0
-189.439 -3.19589 0
-187.82 -3.19531 0
-186.202 -3.19505 0
-184.585 -3.19437 0
-182.964 -3.1948 0
-181.345 -3.19592 0
-179.725 -3.19671 0
-178.106 -3.19462 0
-176.486 -3.19584 0
-174.867 -3.19456 0
-173.247 -3.19456 0
-171.628 -3.19326 0
-170.01 -3.19347 0
-168.39 -3.19571 0
-166.772 -3.19608 0
-165.151 -3.19737 0
-163.533 -3.19858 0
-161.913 -3.19905 0
-160.292 -3.19853 0
-158.675 -3.19762 0
-157.055 -3.19892 0
-155.435 -3.19874 0
-153.816 -3.19558 0
-152.195 -3.19765 0
-150.575 -3.19565 0
-148.955 -3.19453 0
-147.339 -3.19635 0
-145.718 -3.1972 0
-144.099 -3.19602 0
-142.481 -3.19818 0
-140.862 -3.19891 0
-139.242 -3.1972 0
-137.622 -3.19836 0
-136.003 -3.19765 0
-134.385 -3.19752 0
-132.764 -3.19935 0
-131.145 -3.19843 0
-129.527 -3.19614 0
-127.908 -3.19742 0
-126.288 -3.1969 0
-124.669 -3.19575 0
-123.048 -3.19636 0
-121.431 -3.19644 0
-119.813 -3.19749 0
-118.194 -3.20102 0
-116.575 -3.19991 0
-114.956 -3.19987 0
-113.335 -3.19902 0
-111.717 -3.19881 0
-110.099 -3.1987 0
-108.48 -3.19868 0
-106.86 -3.19949 0
-105.24 -3.20021 0
-103.62 -3.20068 0
-101.999 -3.20116 0
-100.38 -3.20178 0
-98.7611 -3.20116 0
-97.1417 -3.20128 0
-95.5228 -3.20147 0
-93.9037 -3.20177 0
-92.2829 -3.20079 0
-90.6646 -3.2009 0
-89.0477 -3.20068 0
-87.429 -3.20098 0
-85.8096 -3.20225 0
-84.1894 -3.20094 0
-82.5715 -3.2014 0
-80.9532 -3.20242 0
-79.3337 -3.20296 0
-77.7148 -3.20312 0
-76.0966 -3.20289 0
-74.4778 -3.20136 0
-72.8595 -3.20183 0
-71.2398 -3.20311 0
-69.6216 -3.2028 0
-68.001 -3.20125 0
-66.3823 -3.20214 0
-64.763 -3.20268 0
-63.1444 -3.20235 0
-61.5254 -3.20266 0
-59.9061 -3.20241 0
-58.2867 -3.20265 0
-56.6679 -3.2024 0
-55.0496 -3.20161 0
-53.431 -3.20152 0
-51.8121 -3.20187 0
-50.1938 -3.20315 0
-48.5736 -3.20279 0
-46.9551 -3.20252 0
-45.3359 -3.20219 0
-43.7176 -3.20049 0
-42.0963 -3.2008 0
-40.4768 -3.20206 0
-38.8575 -3.202 0
-37.2376 -3.2026 0
-35.619 -3.20097 0
-34.0005 -3.20013 0
-32.3823 -3.20019 0
-30.7638 -3.20047 0
-29.144 -3.19975 0
-27.5244 -3.20101 0
-25.9047 -3.20033 0
-24.2853 -3.19958 0
-22.6657 -3.19861 0
-21.0457 -3.19889 0
-19.4263 -3.19963 0
-17.8065 -3.19787 0
-16.1873 -3.19485 0
-14.5697 -3.19595 0
-12.9498 -3.19604 0
-11.3319 -3.1958 0
-9.71366 -3.19689 0
-8.09435 -3.19758 0
-6.47583 -3.19796 0
-4.85576 -3.19801 0
-3.23686 -3.19762 0
-1.61838 -3.19463 0
0 -3.19691 0
-1100.84 57.2492 0
-1100.48 50.4926 0
-1100.25 44.185 0
-1099.99 38.1805 0
-1099.72 32.4597 0
-1099.46 27.016 0
-1099.17 21.8619 0
-1098.82 17.0071 0
-1098.38 12.4896 0
-1097.89 8.34881 0
-1097.37 4.59654 0
-1096.83 1.22937 0
-1096.27 -1.76465 0
-1095.68 -4.40206 0
-1095.07 -6.70466 0
-1094.44 -8.69755 0
-1093.79 -10.408 0
-1093.1 -11.8635 0
-1092.39 -13.0893 0
-1091.64 -14.1099 0
-1090.86 -14.9467 0
-1090.05 -15.6205 0
-1089.2 -16.1485 0
-1088.32 -16.5463 0
-1087.41 -16.8284 0
-1086.46 -17.0068 0
-1085.49 -17.0926 0
-1084.48 -17.0955 0
-1083.45 -17.0236 0
-1082.39 -16.8846 0
-1081.3 -16.6851 0
-1080.18 -16.4303 0
-1079.04 -16.1258 0
-1077.88 -15.777 0
-1076.69 -15.3876 0
-1075.47 -14.9623 0
-1074.24 -14.505 0
-1072.98 -14.0196 0
-1071.69 -13.5087 0
-1070.39 -12.9764 0
-1069.06 -12.4261 0
-1067.71 -11.8601 0
-1066.34 -11.2815 0
-1064.95 -10.6937 0
-1063.55 -10.0988 0
-1062.12 -9.5001 0
-1060.67 -8.89875 0
-1059.21 -8.29819 0
-1057.73 -7.70049 0
-1056.23 -7.10681 0
-1054.72 -6.51992 0
-1053.2 -5.94093 0
-1051.65 -5.37185 0
-1050.1 -4.81384 0
-1048.53 -4.26866 0
-1046.95 -3.73738 0
-1045.36 -3.22133 0
-1043.76 -2.72105 0
-1042.14 -2.23788 0
-1040.52 -1.77237 0
-1038.89 -1.3249 0
-1037.25 -0.897053 0
-1035.6 -0.488081 0
-1033.94 -0.0995513 0
-1032.28 0.269083 0
-1030.61 0.617025 0
-1028.94 0.944356 0
-1027.26 1.25103 0
-1025.58 1.53642 0
-1023.89 1.80097 0
-1022.2 2.04565 0
-1020.5 2.26979 0
-1018.81 2.47314 0
-1017.11 2.65699 0
-1015.41 2.82059 0
-1013.71 2.96487 0
-1012 3.08974 0
-1010.3 3.19653 0
-1008.59 3.28519 0
-1006.89 3.35617 0
-1005.19 3.41027 0
-1003.48 3.44727 0
-1001.78 3.46822 0
-1000.08 3.47425 0
-998.378 3.46562 0
-996.679 3.44235 0
-994.982 3.40555 0
-993.287 3.35572 0
-991.594 3.29374 0
-989.903 3.21971 0
-988.215 3.13491 0
-986.529 3.04005 0
-984.846 2.93535 0
-983.164 2.82198 0
-981.487 2.70027 0
-979.811 2.57014 0
-978.139 2.43308 0
-976.47 2.28938 0
-974.803 2.13987 0
-973.14 1.98518 0