<?xml version="1.0"?>
<VTKFile type="StructuredGrid"  version="0.1" byte_order="LittleEndian" compressor="vtkZLibDataCompressor">
  <StructuredGrid WholeExtent="0 700 0 30 0 0">
    <Piece Extent="0 700 0 30 0 0">
      <PointData Vectors="Velocity">
        <DataArray type="Float32" Name="Velocity" NumberOfComponents="3" format="ascii">
-1086.78 55.1417 0
-1087 48.7075 0
-1087.29 42.4597 0
-1087.61 36.5227 0
-1087.9 30.9302 0
-1088.12 25.5983 0
-1088.34 20.4655 0
-1088.61 15.6197 0
-1088.89 11.1475 0
-1089.14 7.06748 0
-1089.36 3.37236 0
-1089.54 0.0511145 0
-1089.68 -2.90954 0
-1089.76 -5.52939 0
-1089.78 -7.8301 0
-1089.74 -9.83617 0
-1089.61 -11.5722 0
-1089.41 -13.0627 0
-1089.14 -14.3304 0
-1088.78 -15.3979 0
-1088.35 -16.284 0
-1087.85 -17.008 0
-1087.29 -17.5858 0
-1086.66 -18.0333 0
-1085.97 -18.3633 0
-1085.22 -18.5884 0
-1084.42 -18.7196 0
-1083.58 -18.7661 0
-1082.68 -18.7367 0
-1081.75 -18.6395 0
-1080.77 -18.4811 0
-1079.76 -18.2675 0
-1078.71 -18.0046 0
-1077.62 -17.6975 0
-1076.5 -17.3508 0
-1075.35 -16.9686 0
-1074.16 -16.5542 0
-1072.95 -16.1121 0
-1071.71 -15.6459 0
-1070.43 -15.1588 0
-1069.13 -14.6537 0
-1067.81 -14.1334 0
-1066.45 -13.6005 0
-1065.08 -13.059 0
-1063.67 -12.5104 0
-1062.25 -11.9576 0
-1060.8 -11.4024 0
-1059.33 -10.8471 0
-1057.84 -10.2941 0
-1056.33 -9.74604 0
-1054.8 -9.20299 0
-1053.25 -8.66817 0
-1051.69 -8.14219 0
-1050.11 -7.62667 0
-1048.51 -7.12327 0
-1046.9 -6.63339 0
-1045.28 -6.15676 0
-1043.65 -5.69567 0
-1042 -5.25041 0
-1040.34 -4.82175 0
-1038.67 -4.41102 0
-1036.99 -4.01787 0
-1035.31 -3.64378 0
-1033.62 -3.28722 0
-1031.92 -2.95096 0
-1030.21 -2.6332 0
-1028.5 -2.33535 0
-1026.78 -2.05716 0
-1025.06 -1.79865 0
-1023.33 -1.55913 0
-1021.61 -1.33971 0
-1019.88 -1.13851 0
-1018.14 -0.957059 0
-1016.41 -0.795181 0
-1014.68 -0.650811 0
-1012.94 -0.524461 0
-1011.21 -0.416314 0
-1009.47 -0.325974 0
-1007.74 -0.251937 0
-1006 -0.19485 0
-1004.27 -0.153633 0
-1002.54 -0.127727 0
-1000.82 -0.116462 0
-999.092 -0.11999 0
-997.369 -0.137365 0
-995.65 -0.167756 0
-993.933 -0.209596 0
-992.22 -0.26351 0
-990.51 -0.330337 0
-988.803 -0.407693 0
-987.1 -0.494438 0
-985.401 -0.590156 0
-983.707 -0.695414 0
-982.015 -0.808301 0
-980.328 -0.928321 0
-978.645 -1.05637 0
-976.966 -1.19063 0
-975.291 -1.33032 0
-973.621 -1.47519 0
-971.954 -1.62316 0
-970.291 -1.77693 0
-968.632 -1.93301 0
-966.978 -2.09268 0
-965.327 -2.25357 0
-963.679 -2.41617 0
-962.036 -2.58054 0
-960.396 -2.74544 0
-958.761 -2.9107 0
-957.128 -3.07576 0
-955.498 -3.24114 0
-953.872 -3.40533 0
-952.25 -3.56802 0
-950.63 -3.72808 0
-949.013 -3.88648 0
-947.399 -4.04234 0
-945.788 -4.19588 0
-944.179 -4.34701 0
-942.572 -4.49322 0
-940.969 -4.63594 0
-939.366 -4.77585 0
-937.766 -4.91112 0
-936.168 -5.04107 0
-934.572 -5.16826 0
-932.978 -5.29075 0
-931.385 -5.40778 0
-929.794 -5.51935 0
-928.202 -5.62717 0
-926.614 -5.72996 0
-925.025 -5.8269 0
-923.438 -5.91782 0
-921.851 -6.00465 0
-920.265 -6.08624 0
-918.679 -6.16259 0
-917.094 -6.23372 0
-915.509 -6.29928 0
-913.924 -6.35982 0
-912.34 -6.41488 0
-910.756 -6.46495 0
-909.172 -6.51003 0
-907.586 -6.54958 0
-906.001 -6.5848 0
-904.417 -6.61508 0
-902.832 -6.64044 0
-901.245 -6.65988 0
-899.659 -6.67662 0
-898.072 -6.68854 0
-896.485 -6.69475 0
-894.896 -6.69816 0
-893.307 -6.69742 0
-891.717 -6.69231 0
-890.127 -6.68332 0
-888.535 -6.671 0
-886.943 -6.6547 0
-885.35 -6.63461 0
-883.756 -6.61259 0
-882.161 -6.58695 0
-880.565 -6.55884 0
-878.968 -6.5272 0
-877.37 -6.49428 0
-875.771 -6.45807 0
-874.17 -6.42042 0
-872.569 -6.38048 0
-870.967 -6.33813 0
-869.364 -6.2937 0
-867.76 -6.24786 0
-866.154 -6.20011 0
-864.548 -6.15232 0
-862.941 -6.10204 0
-861.332 -6.05132 0
-859.722 -6.00007 0
-858.112 -5.94603 0
-856.5 -5.89356 0
-854.888 -5.83973 0
-853.274 -5.78646 0
-851.661 -5.73191 0
-850.046 -5.67706 0
-848.43 -5.62211 0
-846.812 -5.56782 0
-845.194 -5.51297 0
-843.576 -5.45868 0
-841.957 -5.40632 0
-840.338 -5.3537 0
-838.717 -5.30265 0
-837.094 -5.25118 0
-835.472 -5.20006 0
-833.85 -5.1495 0
-832.226 -5.09976 0
-830.602 -5.05253 0
-828.978 -5.00419 0
-827.353 -4.95763 0
-825.727 -4.91333 0
-824.1 -4.86969 0
-822.474 -4.82742 0
-820.847 -4.78646 0
-819.219 -4.74593 0
-817.592 -4.70882 0
-815.964 -4.67188 0
-814.335 -4.63507 0
-812.707 -4.60281 0
-811.078 -4.56977 0
-809.449 -4.53885 0
-807.82 -4.50996 0
-806.19 -4.48067 0
-804.56 -4.45421 0
-802.931 -4.42918 0
-801.301 -4.40594 0
-799.672 -4.38399 0
-798.043 -4.36421 0
-796.411 -4.3464 0
-794.782 -4.3288 0
-793.152 -4.31288 0
-791.522 -4.29978 0
-789.893 -4.28731 0
-788.264 -4.27559 0
-786.635 -4.26441 0
-785.005 -4.25617 0
-783.377 -4.24987 0
-781.748 -4.24434 0
-780.119 -4.23959 0
-778.491 -4.23677 0
-776.863 -4.23488 0
-775.235 -4.23429 0
-773.607 -4.23335 0
-771.98 -4.23449 0
-770.352 -4.23675 0
-768.723 -4.23899 0
-767.096 -4.245 0
-765.469 -4.25016 0
-763.843 -4.25681 0
-762.217 -4.26382 0
-760.593 -4.27197 0
-758.968 -4.27997 0
-757.343 -4.29021 0
-755.716 -4.30138 0
-754.091 -4.31248 0
-752.467 -4.32427 0
-750.844 -4.33549 0
-749.221 -4.34953 0
-747.597 -4.36281 0
-745.974 -4.37616 0
-744.351 -4.38966 0
-742.729 -4.4037 0
-741.106 -4.41872 0
-739.485 -4.43335 0
-737.862 -4.44869 0
-736.24 -4.46284 0
-734.619 -4.4785 0
-732.998 -4.49569 0
-731.377 -4.51055 0
-729.757 -4.52684 0
-728.137 -4.5439 0
-726.518 -4.55856 0
-724.899 -4.57581 0
-723.278 -4.59002 0
-721.659 -4.6068 0
-720.041 -4.62382 0
-718.421 -4.63903 0
-716.803 -4.65349 0
-715.185 -4.66982 0
-713.567 -4.68344 0
-711.95 -4.69786 0
-710.331 -4.71249 0
-708.713 -4.72755 0
-707.096 -4.74205 0
-705.479 -4.75494 0
-703.862 -4.76806 0
-702.245 -4.78146 0
-700.628 -4.7944 0
-699.011 -4.80817 0
-697.394 -4.82064 0
-695.78 -4.83067 0
-694.163 -4.84282 0
-692.547 -4.85334 0
-690.932 -4.86169 0
-689.315 -4.87183 0
-687.698 -4.88168 0
-686.082 -4.89134 0
-684.466 -4.89995 0
-682.85 -4.90843 0
-681.235 -4.91579 0
-679.619 -4.92281 0
-678.002 -4.92908 0
-676.388 -4.93516 0
-674.772 -4.94168 0
-673.157 -4.94771 0
-671.542 -4.95236 0
-669.925 -4.95633 0
-668.309 -4.96201 0
-666.693 -4.9662 0
-665.078 -4.96848 0
-663.462 -4.97179 0
-661.847 -4.97248 0
-660.232 -4.97544 0
-658.615 -4.9774 0
-656.998 -4.97813 0
-655.382 -4.98038 0
-653.766 -4.98084 0
-652.151 -4.98094 0
-650.534 -4.98092 0
-648.917 -4.97922 0
-647.301 -4.97786 0
-645.684 -4.97737 0
-644.068 -4.97767 0
-642.453 -4.97613 0
-640.836 -4.97303 0
-639.22 -4.97062 0
-637.601 -4.96786 0
-635.986 -4.96397 0
-634.37 -4.96213 0
-632.753 -4.95978 0
-631.135 -4.95357 0
-629.519 -4.95123 0
-627.902 -4.94588 0
-626.284 -4.94175 0
-624.666 -4.93838 0
-623.049 -4.93358 0
-621.432 -4.93009 0
-619.815 -4.9247 0
-618.196 -4.91845 0
-616.579 -4.91427 0
-614.96 -4.90809 0
-613.344 -4.90215 0
-611.726 -4.89813 0
-610.108 -4.89189 0
-608.49 -4.88564 0
-606.871 -4.87973 0
-605.253 -4.87436 0
-603.635 -4.86797 0
-602.016 -4.86275 0
-600.398 -4.85826 0
-598.781 -4.84942 0
-597.162 -4.84419 0
-595.544 -4.83803 0
-593.924 -4.8337 0
-592.303 -4.82793 0
-590.684 -4.82207 0
-589.065 -4.81571 0
-587.446 -4.81018 0
-585.826 -4.80452 0
-584.207 -4.79789 0
-582.589 -4.79228 0
-580.97 -4.78917 0
-579.349 -4.78409 0
-577.73 -4.77923 0
-576.111 -4.77126 0
-574.492 -4.76691 0
-572.872 -4.76161 0
-571.252 -4.75755 0
-569.631 -4.75055 0
-568.013 -4.74729 0
-566.392 -4.74554 0
-564.773 -4.74156 0
-563.153 -4.73872 0
-561.533 -4.73209 0
-559.914 -4.72954 0
-558.294 -4.72666 0
-556.675 -4.72382 0
-555.056 -4.72028 0
-553.436 -4.71642 0
-551.817 -4.71384 0
-550.194 -4.71177 0
-548.574 -4.70937 0
-546.955 -4.70604 0
-545.335 -4.70371 0
-543.715 -4.70107 0
-542.095 -4.69936 0
-540.477 -4.6973 0
-538.856 -4.69474 0
-537.236 -4.69186 0
-535.616 -4.69286 0
-533.995 -4.69039 0
-532.378 -4.68983 0
-530.758 -4.68774 0
-529.139 -4.68691 0
-527.519 -4.68634 0
-525.898 -4.68652 0
-524.279 -4.68603 0
-522.659 -4.6857 0
-521.04 -4.68307 0
-519.42 -4.68282 0
-517.8 -4.68408 0
-516.179 -4.68546 0
-514.561 -4.68369 0
-512.942 -4.68521 0
-511.323 -4.68497 0
-509.704 -4.68613 0
-508.085 -4.68692 0
-506.466 -4.68576 0
-504.847 -4.68715 0
-503.229 -4.68644 0
-501.61 -4.68868 0
-499.988 -4.68883 0
-498.368 -4.68995 0
-496.748 -4.69031 0
-495.129 -4.6921 0
-493.51 -4.6945 0
-491.891 -4.69441 0
-490.272 -4.69338 0
-488.652 -4.69682 0
-487.034 -4.69924 0
-485.414 -4.69969 0
-483.795 -4.702 0
-482.176 -4.70621 0
-480.556 -4.70708 0
-478.938 -4.70771 0
-477.319 -4.71086 0
-475.701 -4.71278 0
-474.082 -4.71392 0
-472.464 -4.71611 0
-470.846 -4.71861 0
-469.227 -4.71874 0
-467.606 -4.72101 0
-465.986 -4.72525 0
-464.368 -4.72715 0
-462.749 -4.72947 0
-461.131 -4.72821 0
-459.511 -4.73115 0
-457.895 -4.73457 0
-456.277 -4.73405 0
-454.657 -4.73627 0
-453.038 -4.73992 0
-451.418 -4.74063 0
-449.801 -4.74308 0
-448.183 -4.7466 0
-446.564 -4.74683 0
-444.944 -4.75094 0
-443.327 -4.75179 0
-441.71 -4.75381 0
-440.092 -4.75664 0
-438.474 -4.76008 0
-436.856 -4.76039 0
-435.236 -4.76377 0
-433.618 -4.76515 0
-431.999 -4.76722 0
-430.382 -4.77055 0
-428.763 -4.77141 0
-427.144 -4.77244 0
-425.525 -4.77286 0
-423.908 -4.77486 0
-422.29 -4.77657 0
-420.672 -4.77978 0
-419.053 -4.78166 0
-417.432 -4.78233 0
-415.816 -4.7833 0
-414.196 -4.78386 0
-412.579 -4.78431 0
-410.961 -4.78671 0
-409.344 -4.7882 0
-407.726 -4.78835 0
-406.109 -4.78854 0
-404.491 -4.78971 0
-402.872 -4.79057 0
-401.253 -4.79271 0
-399.635 -4.78991 0
-398.017 -4.79199 0
-396.4 -4.79239 0
-394.781 -4.79432 0
-393.164 -4.79528 0
-391.544 -4.79482 0
-389.926 -4.79575 0
-388.309 -4.79513 0
-386.691 -4.7986 0
-385.072 -4.79873 0
-383.455 -4.7965 0
-381.837 -4.80062 0
-380.219 -4.80067 0
-378.601 -4.80106 0
-376.984 -4.80264 0
-375.366 -4.80026 0
-373.747 -4.8018 0
-372.128 -4.8005 0
-370.51 -4.79984 0
-368.892 -4.80178 0
-367.274 -4.79892 0
-365.653 -4.79867 0
-364.035 -4.7991 0
-362.418 -4.79956 0
-360.799 -4.79835 0
-359.182 -4.79807 0
-357.563 -4.7983 0
-355.945 -4.79948 0
-354.327 -4.79792 0
-352.708 -4.80001 0
-351.09 -4.79884 0
-349.471 -4.79855 0
-347.854 -4.79968 0
-346.237 -4.79947 0
-344.618 -4.7985 0
-343.001 -4.79928 0
-341.382 -4.79827 0
-339.764 -4.79941 0
-338.146 -4.79823 0
-336.529 -4.79695 0
-334.911 -4.79791 0
-333.291 -4.79827 0
-331.672 -4.79814 0
-330.055 -4.79908 0
-328.435 -4.79798 0
-326.819 -4.7981 0
-325.2 -4.79818 0
-323.583 -4.79643 0
-321.964 -4.79609 0
-320.346 -4.79543 0
-318.728 -4.79481 0
-317.109 -4.79462 0
-315.491 -4.79506 0
-313.872 -4.79572 0
-312.254 -4.79338 0
-310.636 -4.79347 0
-309.017 -4.79581 0
-307.4 -4.79407 0
-305.783 -4.79325 0
-304.164 -4.79312 0
-302.545 -4.79348 0
-300.927 -4.7903 0
-299.308 -4.79212 0
-297.69 -4.78965 0
-296.071 -4.78955 0
-294.454 -4.79176 0
-292.834 -4.78698 0
-291.216 -4.78718 0
-289.597 -4.78987 0
-287.981 -4.78818 0
-286.361 -4.79112 0
-284.744 -4.79226 0
-283.126 -4.7938 0
-281.506 -4.79363 0
-279.888 -4.79184 0
-278.271 -4.79175 0
-276.655 -4.78981 0
-275.036 -4.7862 0
-273.418 -4.78655 0
-271.8 -4.78755 0
-270.181 -4.78556 0
-268.563 -4.78616 0
-266.945 -4.78823 0
-265.326 -4.78731 0
-263.708 -4.78645 0
-262.09 -4.78632 0
-260.472 -4.78856 0
-258.855 -4.78855 0
-257.236 -4.78648 0
-255.616 -4.78635 0
-253.999 -4.78734 0
-252.382 -4.78984 0
-250.762 -4.78977 0
-249.144 -4.78563 0
-247.524 -4.78616 0
-245.907 -4.78838 0
-244.289 -4.78812 0
-242.671 -4.78869 0
-241.053 -4.78864 0
-239.436 -4.78829 0
-237.82 -4.79029 0
-236.202 -4.78698 0
-234.583 -4.78577 0
-232.962 -4.78741 0
-231.345 -4.79039 0
-229.726 -4.78746 0
-228.108 -4.7873 0
-226.489 -4.78835 0
-224.87 -4.78832 0
-223.254 -4.78725 0
-221.635 -4.78693 0
-220.017 -4.78778 0
-218.401 -4.79034 0
-216.781 -4.78963 0
-215.164 -4.78843 0
-213.545 -4.78704 0
-211.925 -4.78879 0
-210.308 -4.79244 0
-208.69 -4.78954 0
-207.071 -4.78958 0
-205.453 -4.79058 0
-203.838 -4.79262 0
-202.218 -4.79183 0
-200.602 -4.79165 0
-198.983 -4.79333 0
-197.365 -4.79351 0
-195.749 -4.79158 0
-194.131 -4.79208 0
-192.512 -4.79495 0
-190.895 -4.79186 0
-189.277 -4.79321 0
-187.659 -4.79245 0
-186.04 -4.7926 0
-184.424 -4.79112 0
-182.807 -4.79322 0
-181.189 -4.79134 0
-179.571 -4.79174 0
-177.951 -4.79337 0
-176.333 -4.79085 0
-174.715 -4.78912 0
-173.097 -4.79115 0
-171.479 -4.79155 0
-169.857 -4.79404 0
-168.241 -4.79553 0
-166.626 -4.79414 0
-165.008 -4.79107 0
-163.388 -4.7928 0
-161.771 -4.79362 0
-160.153 -4.79206 0
-158.535 -4.79492 0
-156.918 -4.79266 0
-155.3 -4.79369 0
-153.682 -4.79318 0
-152.064 -4.79481 0
-150.446 -4.79404 0
-148.827 -4.79095 0
-147.209 -4.7923 0
-145.592 -4.7897 0
-143.975 -4.79071 0
-142.357 -4.79421 0
-140.74 -4.79445 0
-139.122 -4.79509 0
-137.505 -4.79337 0
-135.887 -4.79304 0
-134.269 -4.79354 0
-132.65 -4.79445 0
-131.032 -4.79492 0
-129.413 -4.79562 0
-127.795 -4.79616 0
-126.178 -4.79745 0
-124.562 -4.79659 0
-122.944 -4.79507 0
-121.328 -4.79344 0
-119.709 -4.79384 0
-118.092 -4.79306 0
-116.474 -4.79514 0
-114.855 -4.7955 0
-113.236 -4.79467 0
-111.617 -4.79354 0
-110 -4.79671 0
-108.382 -4.79656 0
-106.766 -4.79574 0
-105.147 -4.79339 0
-103.528 -4.79387 0
-101.91 -4.79416 0
-100.291 -4.79379 0
-98.6751 -4.79583 0
-97.0577 -4.79481 0
-95.4408 -4.79597 0
-93.8222 -4.79611 0
-92.2035 -4.79724 0
-90.5863 -4.79554 0
-88.9693 -4.79678 0
-87.3514 -4.794 0
-85.7325 -4.79785 0
-84.1152 -4.7959 0
-82.4983 -4.79436 0
-80.8785 -4.79448 0
-79.2608 -4.79611 0
-77.6428 -4.7962 0
-76.0259 -4.79596 0
-74.4066 -4.79509 0
-72.7897 -4.79674 0
-71.1722 -4.79744 0
-69.5565 -4.79587 0
-67.9379 -4.79643 0
-66.3208 -4.7955 0
-64.7042 -4.79587 0
-63.086 -4.79714 0
-61.4673 -4.79657 0
-59.8507 -4.79438 0
-58.2321 -4.79311 0
-56.6131 -4.79335 0
-54.9949 -4.79423 0
-53.3779 -4.79371 0
-51.7596 -4.79606 0
-50.1439 -4.79513 0
-48.5255 -4.79389 0
-46.9086 -4.79386 0
-45.2916 -4.79488 0
-43.674 -4.79295 0
-42.0568 -4.79212 0
-40.4381 -4.79138 0
-38.8207 -4.79229 0
-37.2019 -4.79388 0
-35.5849 -4.79499 0
-33.9685 -4.79302 0
-32.3503 -4.79286 0
-30.7317 -4.79211 0
-29.1154 -4.79209 0
-27.4991 -4.79064 0
-25.8801 -4.7918 0
-24.2633 -4.79513 0
-22.6462 -4.79478 0
-21.0273 -4.79471 0
-19.4091 -4.79211 0
-17.7928 -4.78948 0
-16.1747 -4.79 0
-14.5574 -4.7908 0
-12.9391 -4.79195 0
-11.3221 -4.79186 0
-9.70341 -4.79259 0
-8.08603 -4.79324 0
-6.46802 -4.79285 0
-4.8516 -4.79129 0
-3.23544 -4.79113 0
-1.61749 -4.79202 0
0 -4.79155 0
-1093.22 55.4052 0
-1093.28 48.9116 0
-1093.33 42.6369 0
-1093.32 36.6819 0
-1093.32 31.0747 0
-1093.36 25.7342 0
-1093.38 20.5954 0
-1093.32 15.7428 0
-1093.21 11.2642 0
-1093.08 7.18159 0
-1092.92 3.49041 0
-1092.74 0.181264 0
-1092.52 -2.75833 0
-1092.27 -5.34682 0
-1091.98 -7.60705 0
-1091.64 -9.56497 0
-1091.26 -11.2472 0
-1090.82 -12.6805 0
-1090.32 -13.8893 0
-1089.77 -14.8972 0
-1089.17 -15.7251 0
-1088.52 -16.3922 0
-1087.81 -16.9156 0
-1087.05 -17.3109 0
-1086.25 -17.5918 0
-1085.41 -17.7704 0
-1084.52 -17.8573 0
-1083.59 -17.8621 0
-1082.63 -17.7936 0
-1081.63 -17.659 0
-1080.59 -17.4649 0
-1079.52 -17.2172 0
-1078.43 -16.9218 0
-1077.3 -16.5832 0
-1076.14 -16.2061 0
-1074.96 -15.7941 0
-1073.74 -15.3512 0
-1072.5 -14.881 0
-1071.24 -14.388 0
-1069.95 -13.8746 0
-1068.63 -13.3439 0
-1067.29 -12.7987 0
-1065.93 -12.2421 0
-1064.54 -11.6773 0
-1063.13 -11.1063 0
-1061.7 -10.5315 0
-1060.26 -9.95552 0
-1058.79 -9.38066 0
-1057.3 -8.80861 0
-1055.8 -8.24229 0
-1054.27 -7.68229 0
-1052.73 -7.13092 0
-1051.18 -6.58962 0
-1049.61 -6.05958 0
-1048.03 -5.54188 0
-1046.43 -5.03882 0
-1044.82 -4.55069 0
-1043.2 -4.07817 0
-1041.57 -3.62226 0
-1039.93 -3.18375 0
-1038.28 -2.76401 0
-1036.62 -2.36266 0
-1034.95 -1.98054 0
-1033.28 -1.61765 0
-1031.6 -1.27498 0
-1029.91 -0.951678 0
-1028.22 -0.64896 0
-1026.52 -0.366756 0
-1024.82 -0.104461 0
-1023.11 0.138056 0
-1021.4 0.36042 0
-1019.69 0.563637 0
-1017.98 0.746434 0
-1016.26 0.910078 0
-1014.55 1.05505 0
-1012.83 1.18152 0
-1011.11 1.28914 0
-1009.39 1.37948 0
-1007.68 1.45244 0
-1005.96 1.50846 0
-1004.24 1.54825 0
-1002.53 1.57237 0
-1000.82 1.58167 0
-999.104 1.57586 0
-997.395 1.55613 0
-995.688 1.5234 0
-993.983 1.47848 0
-992.282 1.42097 0
-990.583 1.3513 0
-988.886 1.27127 0
-987.193 1.18089 0
-985.503 1.08107 0
-983.816 0.972878 0
-982.132 0.855958 0
-980.452 0.731876 0
-978.775 0.600785 0
-977.102 0.462901 0
-975.432 0.319138 0
-973.766 0.170915 0
-972.103 0.0188258 0
-970.444 -0.138005 0
-968.789 -0.298244 0
-967.136 -0.461021 0
-965.487 -0.625845 0
-963.841 -0.791891 0
-962.199 -0.95995 0
-960.56 -1.12818 0
-958.924 -1.29681 0
-957.291 -1.46472 0
-955.66 -1.63306 0
-954.033 -1.80012 0
-952.409 -1.96566 0
-950.787 -2.12867 0
-949.168 -2.28989 0
-947.552 -2.44837 0
-945.938 -2.60423 0
-944.326 -2.75688 0
-942.715 -2.90597 0
-941.107 -3.05081 0
-939.501 -3.19203 0
-937.897 -3.32917 0
-936.295 -3.46187 0
-934.695 -3.59013 0
-933.096 -3.71391 0
-931.498 -3.83272 0
-929.901 -3.94507 0
-928.306 -4.05406 0
-926.711 -4.1572 0
-925.118 -4.25596 0
-923.525 -4.34805 0
-921.934 -4.43452 0
-920.342 -4.51686 0
-918.752 -4.59395 0
-917.161 -4.66526 0
-915.571 -4.73081 0
-913.981 -4.79156 0
-912.392 -4.84729 0
-910.802 -4.89734 0
-909.213 -4.9417 0
-907.623 -4.98143 0
-906.033 -5.01638 0
-904.443 -5.04632 0
-902.853 -5.07072 0
-901.263 -5.09088 0
-899.672 -5.10629 0
-898.08 -5.11778 0
-896.489 -5.12444 0
-894.896 -5.1262 0
-893.304 -5.12482 0
-891.71 -5.11921 0
-890.116 -5.10939 0
-888.52 -5.09591 0
-886.925 -5.07881 0
-885.329 -5.05885 0
-883.732 -5.03573 0
-882.134 -5.00896 0
-880.535 -4.97964 0
-878.935 -4.94715 0
-877.335 -4.91316 0
-875.733 -4.87648 0
-874.131 -4.83755 0
-872.528 -4.79675 0
-870.924 -4.75315 0
-869.319 -4.70779 0
-867.713 -4.66096 0
-866.107 -4.61298 0
-864.499 -4.56329 0
-862.891 -4.51292 0
-861.281 -4.46106 0
-859.671 -4.4083 0
-858.06 -4.35454 0
-856.448 -4.30023 0
-854.835 -4.24588 0
-853.221 -4.19119 0
-851.607 -4.13576 0
-849.991 -4.08037 0
-848.375 -4.0251 0
-846.759 -3.96978 0
-845.141 -3.91452 0
-843.523 -3.86041 0
-841.905 -3.80626 0
-840.286 -3.75306 0
-838.665 -3.70061 0
-837.044 -3.64832 0
-835.423 -3.59701 0
-833.802 -3.54606 0
-832.179 -3.49559 0
-830.555 -3.44753 0
-828.932 -3.3995 0
-827.308 -3.35216 0
-825.683 -3.30708 0
-824.058 -3.2628 0
-822.433 -3.22037 0
-820.807 -3.17866 0
-819.181 -3.13867 0
-817.555 -3.10064 0
-815.928 -3.06404 0
-814.301 -3.02701 0
-812.674 -2.99387 0
-811.046 -2.96114 0
-809.419 -2.92994 0
-807.792 -2.90029 0
-806.164 -2.87174 0
-804.536 -2.84404 0
-802.907 -2.81893 0
-801.279 -2.7965 0
-799.652 -2.77449 0
-798.023 -2.75453 0
-796.395 -2.73657 0
-794.767 -2.71933 0
-793.138 -2.70344 0
-791.51 -2.69 0
-789.882 -2.67738 0
-788.254 -2.66636 0
-786.626 -2.6555 0
-784.998 -2.64672 0
-783.371 -2.64063 0
-781.743 -2.63544 0
-780.116 -2.63106 0
-778.488 -2.62853 0
-776.861 -2.6262 0
-775.234 -2.62647 0
-773.607 -2.62588 0
-771.981 -2.62757 0
-770.354 -2.62838 0
-768.728 -2.6322 0
-767.101 -2.63788 0
-765.476 -2.64353 0
-763.85 -2.65101 0
-762.225 -2.65789 0
-760.6 -2.66611 0
-758.976 -2.67483 0
-757.352 -2.68495 0
-755.728 -2.69561 0
-754.103 -2.70747 0
-752.479 -2.71972 0
-750.856 -2.73259 0
-749.233 -2.74527 0
-747.61 -2.7592 0
-745.988 -2.77247 0
-744.366 -2.78599 0
-742.743 -2.80013 0
-741.121 -2.81586 0
-739.499 -2.83079 0
-737.877 -2.84547 0
-736.255 -2.86179 0
-734.635 -2.87698 0
-733.014 -2.89375 0
-731.394 -2.91011 0
-729.773 -2.92676 0
-728.154 -2.94331 0
-726.534 -2.95815 0
-724.914 -2.97415 0
-723.295 -2.99136 0
-721.676 -3.00768 0
-720.056 -3.02319 0
-718.438 -3.03929 0
-716.819 -3.05438 0
-715.2 -3.07065 0
-713.581 -3.08486 0
-711.963 -3.09909 0
-710.345 -3.11463 0
-708.728 -3.12916 0
-707.11 -3.1438 0
-705.493 -3.15731 0
-703.875 -3.17045 0
-702.258 -3.1844 0
-700.641 -3.19679 0
-699.023 -3.21022 0
-697.407 -3.22247 0
-695.79 -3.23327 0
-694.174 -3.24574 0
-692.557 -3.25572 0
-690.939 -3.26457 0
-689.324 -3.27407 0
-687.707 -3.28493 0
-686.091 -3.29395 0
-684.474 -3.30305 0
-682.857 -3.31225 0
-681.242 -3.31951 0
-679.626 -3.32593 0
-678.009 -3.33275 0
-676.393 -3.3391 0
-674.777 -3.34506 0
-673.163 -3.35075 0
-671.546 -3.35579 0
-669.93 -3.35961 0
-668.313 -3.36458 0
-666.697 -3.3687 0
-665.079 -3.37287 0
-663.464 -3.37427 0
-661.849 -3.3772 0
-660.233 -3.37853 0
-658.615 -3.37967 0
-656.999 -3.38203 0
-655.382 -3.38328 0
-653.765 -3.38316 0
-652.15 -3.3837 0
-650.533 -3.38372 0
-648.916 -3.38279 0
-647.3 -3.38173 0
-645.684 -3.37939 0
-644.066 -3.38024 0
-642.449 -3.37825 0
-640.834 -3.37495 0
-639.216 -3.3724 0
-637.599 -3.36957 0
-635.983 -3.36609 0
-634.367 -3.36317 0
-632.749 -3.36075 0
-631.131 -3.357 0
-629.514 -3.35305 0
-627.896 -3.34765 0
-626.28 -3.34404 0
-624.661 -3.34038 0
-623.044 -3.3361 0
-621.426 -3.33084 0
-619.808 -3.32648 0
-618.191 -3.32033 0
-616.574 -3.31576 0
-614.956 -3.30842 0
-613.338 -3.30345 0
-611.72 -3.29841 0
-610.102 -3.2928 0
-608.484 -3.28634 0
-606.866 -3.2802 0
-605.247 -3.27509 0
-603.629 -3.26876 0
-602.012 -3.2641 0
-600.393 -3.25776 0
-598.774 -3.25107 0
-597.155 -3.24529 0
-595.536 -3.23827 0
-593.918 -3.23363 0
-592.299 -3.22704 0
-590.679 -3.22168 0
-589.06 -3.21559 0
-587.44 -3.20972 0
-585.821 -3.20469 0
-584.203 -3.19877 0
-582.583 -3.19386 0
-580.964 -3.1888 0
-579.345 -3.18379 0
-577.726 -3.17887 0
-576.106 -3.1728 0
-574.488 -3.16688 0
-572.868 -3.16187 0
-571.248 -3.15577 0
-569.629 -3.1515 0
-568.008 -3.14691 0
-566.388 -3.14466 0
-564.769 -3.14062 0
-563.149 -3.13813 0
-561.53 -3.13237 0
-559.911 -3.12978 0
-558.291 -3.12627 0
-556.671 -3.12208 0
-555.052 -3.11956 0
-553.432 -3.11717 0
-551.811 -3.11237 0
-550.192 -3.10903 0
-548.572 -3.10767 0
-546.952 -3.10582 0
-545.333 -3.1031 0
-543.713 -3.10147 0
-542.094 -3.09847 0
-540.474 -3.09597 0
-538.854 -3.09315 0
-537.235 -3.09198 0
-535.615 -3.09188 0
-533.995 -3.09132 0
-532.377 -3.08922 0
-530.758 -3.08799 0
-529.137 -3.08713 0
-527.518 -3.0857 0
-525.898 -3.08589 0
-524.279 -3.08593 0
-522.658 -3.08486 0
-521.039 -3.08452 0
-519.419 -3.08303 0
-517.799 -3.08432 0
-516.18 -3.08475 0
-514.56 -3.08412 0
-512.941 -3.08544 0
-511.323 -3.08499 0
-509.703 -3.08559 0
-508.085 -3.08758 0
-506.465 -3.08706 0
-504.847 -3.08683 0
-503.228 -3.08739 0
-501.609 -3.08724 0
-499.988 -3.08764 0
-498.368 -3.08839 0
-496.749 -3.09143 0
-495.129 -3.09222 0
-493.511 -3.09434 0
-491.892 -3.09405 0
-490.274 -3.09523 0
-488.656 -3.0971 0
-487.035 -3.09833 0
-485.416 -3.10045 0
-483.798 -3.10249 0
-482.179 -3.10423 0
-480.559 -3.10705 0
-478.94 -3.10857 0
-477.321 -3.11062 0
-475.702 -3.1127 0
-474.084 -3.11559 0
-472.467 -3.11643 0
-470.849 -3.11824 0
-469.229 -3.11834 0
-467.609 -3.12052 0
-465.99 -3.12423 0
-464.369 -3.12611 0
-462.751 -3.12943 0
-461.133 -3.12993 0
-459.515 -3.13189 0
-457.896 -3.13553 0
-456.277 -3.13526 0
-454.658 -3.13632 0
-453.039 -3.1401 0
-451.421 -3.14179 0
-449.802 -3.1444 0
-448.185 -3.14666 0
-446.566 -3.14779 0
-444.947 -3.1501 0
-443.328 -3.15389 0
-441.712 -3.15612 0
-440.095 -3.15802 0
-438.477 -3.16062 0
-436.857 -3.16269 0
-435.239 -3.16369 0
-433.62 -3.16625 0
-432.002 -3.16764 0
-430.382 -3.17039 0
-428.763 -3.17048 0
-427.146 -3.17368 0
-425.527 -3.1745 0
-423.909 -3.17664 0
-422.292 -3.17741 0
-420.673 -3.17939 0
-419.055 -3.18206 0
-417.436 -3.18359 0
-415.817 -3.18375 0
-414.198 -3.1849 0
-412.58 -3.18643 0
-410.964 -3.18728 0
-409.345 -3.18963 0
-407.727 -3.18953 0
-406.109 -3.19003 0
-404.491 -3.19109 0
-402.874 -3.19243 0
-401.255 -3.19222 0
-399.636 -3.19162 0
-398.018 -3.19264 0
-396.401 -3.19331 0
-394.783 -3.19498 0
-393.163 -3.1956 0
-391.546 -3.19654 0
-389.928 -3.19682 0
-388.311 -3.19674 0
-386.693 -3.198 0
-385.075 -3.1989 0
-383.455 -3.19947 0
-381.838 -3.20103 0
-380.22 -3.20188 0
-378.603 -3.20196 0
-376.983 -3.20248 0
-375.365 -3.20083 0
-373.746 -3.202 0
-372.127 -3.20178 0
-370.51 -3.20103 0
-368.891 -3.20274 0
-367.273 -3.20024 0
-365.655 -3.19876 0
-364.037 -3.20067 0
-362.417 -3.20077 0
-360.8 -3.19973 0
-359.181 -3.19968 0
-357.563 -3.1978 0
-355.945 -3.19979 0
-354.327 -3.19995 0
-352.709 -3.19975 0
-351.09 -3.20072 0
-349.472 -3.20033 0
-347.854 -3.2007 0
-346.236 -3.20025 0
-344.618 -3.20065 0
-343.001 -3.20006 0
-341.383 -3.19916 0
-339.764 -3.20021 0
-338.146 -3.19864 0
-336.527 -3.19846 0
-334.909 -3.19845 0
-333.291 -3.19865 0
-331.673 -3.19908 0
-330.053 -3.19911 0
-328.435 -3.19828 0
-326.818 -3.19907 0
-325.199 -3.19824 0
-323.581 -3.19805 0
-321.963 -3.19644 0
-320.345 -3.19647 0
-318.727 -3.19596 0
-317.108 -3.19525 0
-315.49 -3.19488 0
-313.871 -3.19591 0
-312.254 -3.19531 0
-310.636 -3.19482 0
-309.018 -3.19572 0
-307.399 -3.19418 0
-305.781 -3.19474 0
-304.163 -3.19444 0
-302.546 -3.19419 0
-300.927 -3.19285 0
-299.307 -3.19165 0
-297.689 -3.19177 0
-296.072 -3.19043 0
-294.451 -3.19101 0
-292.833 -3.18956 0
-291.216 -3.19065 0
-289.598 -3.19015 0
-287.979 -3.19048 0
-286.362 -3.1896 0
-284.743 -3.19241 0
-283.124 -3.19377 0
-281.505 -3.19398 0
-279.889 -3.1933 0
-278.272 -3.19267 0
-276.654 -3.19141 0
-275.036 -3.18911 0
-273.418 -3.18881 0
-271.799 -3.18696 0
-270.184 -3.18869 0
-268.565 -3.18703 0
-266.944 -3.18736 0
-265.326 -3.18845 0
-263.707 -3.18838 0
-262.088 -3.1889 0
-260.473 -3.19003 0
-258.854 -3.18972 0
-257.236 -3.18722 0
-255.619 -3.18862 0
-254 -3.18917 0
-252.382 -3.18894 0
-250.762 -3.1894 0
-249.144 -3.18738 0
-247.526 -3.18746 0
-245.907 -3.18896 0
-244.29 -3.18953 0
-242.672 -3.19064 0
-241.053 -3.18933 0
-239.435 -3.19048 0
-237.818 -3.19047 0
-236.2 -3.18813 0
-234.583 -3.18677 0
-232.965 -3.18837 0
-231.345 -3.19051 0
-229.727 -3.18958 0
-228.107 -3.18866 0
-226.49 -3.18955 0
-224.871 -3.18869 0
-223.252 -3.18886 0
-221.634 -3.18976 0
-220.018 -3.19006 0
-218.4 -3.19031 0
-216.781 -3.1892 0
-215.164 -3.18836 0
-213.544 -3.18859 0
-211.926 -3.18953 0
-210.307 -3.19252 0
-208.69 -3.19142 0
-207.074 -3.19213 0
-205.456 -3.19143 0
-203.838 -3.19424 0
-202.222 -3.19346 0
-200.602 -3.19338 0
-198.985 -3.1937 0
-197.368 -3.19377 0
-195.749 -3.1932 0
-194.131 -3.19347 0
-192.512 -3.19571 0
-190.893 -3.194 0
-189.277 -3.1957 0
-187.659 -3.1944 0
-186.041 -3.19467 0
-184.424 -3.19332 0
-182.806 -3.19283 0
-181.188 -3.19376 0
-179.57 -3.19281 0
-177.951 -3.19335 0
-176.332 -3.19214 0
-174.714 -3.18969 0
-173.097 -3.19225 0
-171.479 -3.19245 0
-169.86 -3.19344 0
-168.241 -3.19565 0
-166.622 -3.19529 0
-165.006 -3.19425 0
-163.389 -3.1948 0
-161.772 -3.19386 0
-160.155 -3.19363 0
-158.537 -3.19552 0
-156.919 -3.19431 0
-155.301 -3.19378 0
-153.682 -3.19331 0
-152.064 -3.19537 0
-150.446 -3.19432 0
-148.828 -3.19179 0
-147.211 -3.19374 0
-145.592 -3.19087 0
-143.975 -3.19217 0
-142.357 -3.19309 0
-140.74 -3.19671 0
-139.123 -3.19723 0
-137.506 -3.19553 0
-135.887 -3.19356 0
-134.269 -3.19384 0
-132.652 -3.19408 0
-131.032 -3.19585 0
-129.414 -3.19652 0
-127.796 -3.19829 0
-126.178 -3.19819 0
-124.56 -3.19875 0
-122.943 -3.19629 0
-121.325 -3.19609 0
-119.707 -3.19436 0
-118.09 -3.19448 0
-116.471 -3.19531 0
-114.854 -3.1949 0
-113.235 -3.19512 0
-111.618 -3.19664 0
-110.001 -3.19753 0
-108.384 -3.19722 0
-106.764 -3.19658 0
-105.148 -3.19472 0
-103.529 -3.19418 0
-101.911 -3.19456 0
-100.293 -3.19597 0
-98.6741 -3.19714 0
-97.057 -3.19736 0
-95.4408 -3.19767 0
-93.8223 -3.19732 0
-92.2053 -3.1974 0
-90.5881 -3.19851 0
-88.9693 -3.19796 0
-87.3525 -3.19668 0
-85.7347 -3.19704 0
-84.1165 -3.19626 0
-82.4981 -3.19477 0
-80.8799 -3.19763 0
-79.2615 -3.1976 0
-77.6448 -3.19707 0
-76.0261 -3.19811 0
-74.4084 -3.19827 0
-72.7906 -3.19763 0
-71.1724 -3.19866 0
-69.5546 -3.19871 0
-67.9363 -3.19751 0
-66.319 -3.19754 0
-64.7029 -3.19807 0
-63.0849 -3.1974 0
-61.4672 -3.19778 0
-59.8487 -3.1959 0
-58.2311 -3.1943 0
-56.6128 -3.19606 0
-54.9953 -3.19484 0
-53.3777 -3.19551 0
-51.7607 -3.19707 0
-50.144 -3.19783 0
-48.527 -3.19529 0
-46.9088 -3.1961 0
-45.29 -3.19457 0
-43.6721 -3.19542 0
-42.055 -3.19323 0
-40.4369 -3.19264 0
-38.8194 -3.19407 0
-37.2033 -3.19389 0
-35.5855 -3.19545 0
-33.9671 -3.19537 0
-32.3508 -3.19391 0
-30.7316 -3.1941 0
-29.116 -3.19469 0
-27.4972 -3.19202 0
-25.8799 -3.19452 0
-24.2636 -3.19458 0
-22.6455 -3.19534 0
-21.0277 -3.19604 0
-19.4098 -3.19354 0
-17.7916 -3.19199 0
-16.1748 -3.19269 0
-14.5584 -3.19228 0
-12.9402 -3.19327 0
-11.3217 -3.19379 0
-9.70375 -3.19405 0
-8.08583 -3.19393 0
-6.46881 -3.19403 0
-4.85075 -3.19421 0
-3.23501 -3.1931 0
-1.61843 -3.1941 0
0 -3.19222 0
-1100.01 56.05 0
-1099.65 49.3461 0
-1099.43 43.0938 0
-1099.17 37.1459 0
-1098.91 31.482 0
-1098.64 26.0959 0
-1098.36 20.9999 0
-1098.01 16.2038 0
-1097.57 11.7457 0
-1097.09 7.66549 0
-1096.57 3.97473 0
-1096.02 0.66872 0
-1095.46 -2.26362 0
-1094.87 -4.83983 0
-1094.26 -7.08219 0
-1093.63 -9.01637 0
-1092.97 -10.67 0
-1092.29 -12.0699 0
-1091.57 -13.2425 0
-1090.82 -14.2122 0
-1090.04 -15.001 0
-1089.22 -15.6288 0
-1088.37 -16.1135 0
-1087.49 -16.4708 0
-1086.57 -16.7151 0
-1085.62 -16.8583 0
-1084.64 -16.911 0
-1083.63 -16.8832 0
-1082.59 -16.7832 0
-1081.53 -16.6182 0
-1080.43 -16.3948 0
-1079.31 -16.1189 0
-1078.17 -15.7955 0
-1076.99 -15.4302 0
-1075.8 -15.0269 0
-1074.58 -14.5893 0
-1073.34 -14.1215 0
-1072.07 -13.6271 0
-1070.78 -13.11 0
-1069.47 -12.5734 0
-1068.14 -12.0197 0
-1066.78 -11.4529 0
-1065.41 -10.8749 0
-1064.02 -10.2895 0
-1062.6 -9.69812 0
-1061.17 -9.10411 0
-1059.72 -8.50966 0
-1058.25 -7.91705 0
-1056.77 -7.32766 0
-1055.27 -6.74495 0
-1053.75 -6.16918 0
-1052.22 -5.60281 0
-1050.68 -5.04723 0
-1049.12 -4.50353 0
-1047.55 -3.97374 0
-1045.96 -3.4584 0
-1044.37 -2.95913 0
-1042.76 -2.4762 0
-1041.15 -2.01038 0
-1039.52 -1.56301 0
-1037.89 -1.13446 0
-1036.25 -0.725402 0
-1034.6 -0.335925 0
-1032.94 0.0333076 0
-1031.28 0.382278 0
-1029.61 0.71076 0
-1027.94 1.01837 0
-1026.26 1.30486 0
-1024.57 1.57101 0
-1022.89 1.81663 0
-1021.2 2.04197 0
-1019.51 2.2472 0
-1017.81 2.43186 0
-1016.11 2.59743 0
-1014.41 2.74356 0
-1012.71 2.8696 0
-1011.01 2.97814 0
-1009.31 3.06873 0
-1007.61 3.14109 0
-1005.91 3.19648 0
-1004.21 3.23537 0
-1002.51 3.25806 0
-1000.81 3.26595 0
-999.114 3.25859 0
-997.418 3.23716 0
-995.723 3.20251 0
-994.031 3.15483 0
-992.341 3.09463 0
-990.652 3.02285 0
-988.966 2.94017 0
-987.282 2.84687 0
-985.601 2.74465 0
-983.922 2.63309 0
-982.246 2.51327 0
-980.573 2.38607 0
-978.902 2.25186 0
-977.235 2.11071 0
-975.571 1.96398 0
-973.909 1.81281 0