<?xml version="1.0"?>
<VTKFile type="StructuredGrid"  version="0.1" byte_order="LittleEndian" compressor="vtkZLibDataCompressor">
  <StructuredGrid WholeExtent="0 700 0 30 0 0">
    <Piece Extent="0 700 0 30 0 0">
      <PointData Vectors="Velocity">
        <DataArray type="Float32" Name="Velocity" NumberOfComponents="3" format="ascii">
-1081.78 50.3152 0
-1082.04 44.1709 0
-1082.36 38.2168 0
-1082.72 32.5824 0
-1083.04 27.3021 0
-1083.27 22.2787 0
-1083.51 17.4485 0
-1083.8 12.9138 0
-1084.09 8.76331 0
-1084.35 5.00936 0
-1084.58 1.64137 0
-1084.76 -1.35315 0
-1084.9 -3.99106 0
-1084.97 -6.29283 0
-1084.97 -8.28314 0
-1084.9 -9.9878 0
-1084.75 -11.4339 0
-1084.52 -12.6469 0
-1084.2 -13.6502 0
-1083.8 -14.4668 0
-1083.33 -15.1164 0
-1082.79 -15.6177 0
-1082.17 -15.9883 0
-1081.49 -16.2423 0
-1080.75 -16.3936 0
-1079.95 -16.4535 0
-1079.1 -16.4334 0
-1078.2 -16.3424 0
-1077.26 -16.1892 0
-1076.27 -15.9806 0
-1075.24 -15.7236 0
-1074.18 -15.4235 0
-1073.07 -15.0862 0
-1071.93 -14.7158 0
-1070.76 -14.317 0
-1069.56 -13.8929 0
-1068.33 -13.4486 0
-1067.07 -12.9867 0
-1065.78 -12.5098 0
-1064.46 -12.0215 0
-1063.11 -11.5243 0
-1061.74 -11.0206 0
-1060.35 -10.5136 0
-1058.93 -10.0056 0
-1057.49 -9.49805 0
-1056.02 -8.99345 0
-1054.54 -8.49349 0
-1053.04 -8.00038 0
-1051.52 -7.51561 0
-1049.98 -7.03998 0
-1048.42 -6.5762 0
-1046.85 -6.1244 0
-1045.26 -5.68611 0
-1043.66 -5.26247 0
-1042.04 -4.85435 0
-1040.42 -4.46242 0
-1038.78 -4.0872 0
-1037.13 -3.72953 0
-1035.48 -3.38996 0
-1033.81 -3.06943 0
-1032.14 -2.76674 0
-1030.45 -2.48263 0
-1028.77 -2.21829 0
-1027.08 -1.97267 0
-1025.38 -1.74577 0
-1023.68 -1.53837 0
-1021.97 -1.34957 0
-1020.27 -1.17917 0
-1018.55 -1.02698 0
-1016.84 -0.893304 0
-1015.13 -0.777512 0
-1013.42 -0.678359 0
-1011.7 -0.596221 0
-1009.99 -0.531169 0
-1008.27 -0.482009 0
-1006.56 -0.447754 0
-1004.85 -0.428265 0
-1003.14 -0.42341 0
-1001.43 -0.431908 0
-999.729 -0.454238 0
-998.026 -0.488128 0
-996.326 -0.534451 0
-994.63 -0.591653 0
-992.937 -0.659652 0
-991.246 -0.737459 0
-989.56 -0.823951 0
-987.877 -0.919739 0
-986.198 -1.02333 0
-984.523 -1.13411 0
-982.852 -1.2516 0
-981.184 -1.37521 0
-979.521 -1.50301 0
-977.862 -1.63735 0
-976.206 -1.77509 0
-974.554 -1.91675 0
-972.906 -2.0611 0
-971.262 -2.20785 0
-969.622 -2.3566 0
-967.986 -2.50695 0
-966.353 -2.65845 0
-964.725 -2.80892 0
-963.099 -2.96014 0
-961.477 -3.1111 0
-959.859 -3.26055 0
-958.243 -3.40887 0
-956.631 -3.55623 0
-955.021 -3.70058 0
-953.415 -3.84225 0
-951.811 -3.98172 0
-950.21 -4.11786 0
-948.612 -4.2512 0
-947.016 -4.38017 0
-945.422 -4.50567 0
-943.829 -4.62655 0
-942.239 -4.74365 0
-940.65 -4.85569 0
-939.063 -4.96398 0
-937.478 -5.06735 0
-935.893 -5.16647 0
-934.31 -5.26024 0
-932.728 -5.34889 0
-931.147 -5.43236 0
-929.567 -5.51109 0
-927.987 -5.58428 0
-926.408 -5.65261 0
-924.83 -5.71576 0
-923.252 -5.77453 0
-921.674 -5.82726 0
-920.096 -5.87554 0
-918.518 -5.91885 0
-916.939 -5.95696 0
-915.361 -5.99031 0
-913.782 -6.01916 0
-912.203 -6.04376 0
-910.625 -6.06286 0
-909.045 -6.07902 0
-907.466 -6.09043 0
-905.885 -6.09756 0
-904.304 -6.09987 0
-902.722 -6.09859 0
-901.139 -6.09393 0
-899.555 -6.08614 0
-897.971 -6.07456 0
-896.385 -6.05947 0
-894.799 -6.04227 0
-893.212 -6.02142 0
-891.623 -5.99752 0
-890.034 -5.9712 0
-888.444 -5.94296 0
-886.852 -5.91153 0
-885.26 -5.8787 0
-883.667 -5.84422 0
-882.073 -5.80728 0
-880.477 -5.76917 0
-878.881 -5.72915 0
-877.284 -5.68916 0
-875.685 -5.64569 0
-874.086 -5.60292 0
-872.486 -5.55884 0
-870.885 -5.51359 0
-869.282 -5.46815 0
-867.679 -5.42164 0
-866.074 -5.37522 0
-864.469 -5.32921 0
-862.863 -5.28144 0
-861.255 -5.23604 0
-859.648 -5.18917 0
-858.038 -5.14353 0
-856.429 -5.09728 0
-854.819 -5.05189 0
-853.209 -5.00636 0
-851.597 -4.96259 0
-849.985 -4.91927 0
-848.371 -4.87573 0
-846.757 -4.83337 0
-845.144 -4.79365 0
-843.529 -4.75399 0
-841.913 -4.71451 0
-840.297 -4.67644 0
-838.682 -4.64015 0
-837.065 -4.60492 0
-835.447 -4.57075 0
-833.829 -4.53771 0
-832.211 -4.50735 0
-830.593 -4.4769 0
-828.976 -4.44854 0
-827.357 -4.42076 0
-825.738 -4.39496 0
-824.119 -4.36982 0
-822.5 -4.34772 0
-820.881 -4.32579 0
-819.261 -4.30617 0
-817.642 -4.28705 0
-816.023 -4.27088 0
-814.403 -4.25424 0
-812.783 -4.24054 0
-811.164 -4.22773 0
-809.545 -4.21688 0
-807.925 -4.20629 0
-806.305 -4.19805 0
-804.686 -4.19152 0
-803.067 -4.18538 0
-801.448 -4.18086 0
-799.829 -4.17737 0
-798.211 -4.17445 0
-796.591 -4.17351 0
-794.972 -4.17282 0
-793.354 -4.17528 0
-791.736 -4.17686 0
-790.119 -4.18203 0
-788.501 -4.18763 0
-786.884 -4.19191 0
-785.267 -4.1974 0
-783.651 -4.20475 0
-782.034 -4.21259 0
-780.419 -4.22139 0
-778.803 -4.23163 0
-777.188 -4.24177 0
-775.572 -4.25314 0
-773.957 -4.26399 0
-772.343 -4.2757 0
-770.728 -4.28857 0
-769.113 -4.30093 0
-767.499 -4.31499 0
-765.886 -4.33002 0
-764.273 -4.34456 0
-762.659 -4.35952 0
-761.046 -4.37408 0
-759.433 -4.38862 0
-757.822 -4.40516 0
-756.21 -4.41991 0
-754.598 -4.43569 0
-752.986 -4.45255 0
-751.376 -4.46846 0
-749.766 -4.48439 0
-748.156 -4.50001 0
-746.546 -4.51625 0
-744.936 -4.53261 0
-743.326 -4.5478 0
-741.716 -4.56215 0
-740.107 -4.57682 0
-738.498 -4.59222 0
-736.889 -4.60814 0
-735.281 -4.62163 0
-733.671 -4.63569 0
-732.062 -4.64967 0
-730.455 -4.66449 0
-728.847 -4.67664 0
-727.239 -4.6906 0
-725.63 -4.70218 0
-724.022 -4.7162 0
-722.415 -4.72696 0
-720.809 -4.74033 0
-719.2 -4.75069 0
-717.594 -4.7616 0
-715.986 -4.77192 0
-714.38 -4.78399 0
-712.774 -4.79378 0
-711.165 -4.80443 0
-709.558 -4.81241 0
-707.951 -4.8219 0
-706.346 -4.82784 0
-704.739 -4.83557 0
-703.132 -4.84199 0
-701.526 -4.84879 0
-699.919 -4.85562 0
-698.312 -4.86259 0
-696.706 -4.86595 0
-695.098 -4.87079 0
-693.491 -4.87341 0
-691.884 -4.87711 0
-690.277 -4.88174 0
-688.67 -4.88581 0
-687.062 -4.88735 0
-685.455 -4.89155 0
-683.847 -4.89245 0
-682.242 -4.89366 0
-680.637 -4.89453 0
-679.03 -4.89541 0
-677.424 -4.89549 0
-675.816 -4.89608 0
-674.208 -4.89551 0
-672.6 -4.89473 0
-670.994 -4.89543 0
-669.387 -4.89418 0
-667.779 -4.89215 0
-666.173 -4.89067 0
-664.565 -4.88867 0
-662.958 -4.88601 0
-661.351 -4.88298 0
-659.743 -4.88072 0
-658.134 -4.87815 0
-656.525 -4.87508 0
-654.918 -4.87323 0
-653.311 -4.86756 0
-651.701 -4.86508 0
-650.092 -4.85865 0
-648.483 -4.85621 0
-646.876 -4.85257 0
-645.268 -4.84793 0
-643.66 -4.84525 0
-642.051 -4.84008 0
-640.441 -4.83542 0
-638.831 -4.83201 0
-637.223 -4.82925 0
-635.614 -4.82329 0
-634.005 -4.81845 0
-632.396 -4.81437 0
-630.786 -4.8087 0
-629.176 -4.80479 0
-627.568 -4.79889 0
-625.959 -4.79487 0
-624.35 -4.78961 0
-622.74 -4.78434 0
-621.13 -4.7791 0
-619.521 -4.77438 0
-617.911 -4.7701 0
-616.3 -4.76615 0
-614.691 -4.76101 0
-613.08 -4.7584 0
-611.471 -4.75244 0
-609.861 -4.74957 0
-608.25 -4.74393 0
-606.639 -4.74045 0
-605.029 -4.73706 0
-603.418 -4.73287 0
-601.808 -4.73002 0
-600.199 -4.72533 0
-598.59 -4.72072 0
-596.98 -4.71857 0
-595.368 -4.71373 0
-593.757 -4.71224 0
-592.146 -4.71013 0
-590.535 -4.70879 0
-588.924 -4.70385 0
-587.314 -4.70098 0
-585.704 -4.69847 0
-584.092 -4.69787 0
-582.483 -4.69359 0
-580.873 -4.69189 0
-579.263 -4.69128 0
-577.651 -4.69087 0
-576.042 -4.68895 0
-574.431 -4.68668 0
-572.82 -4.68593 0
-571.21 -4.68466 0
-569.599 -4.68167 0
-567.987 -4.67925 0
-566.377 -4.68119 0
-564.766 -4.67863 0
-563.154 -4.67981 0
-561.543 -4.67969 0
-559.933 -4.67967 0
-558.323 -4.67953 0
-556.713 -4.67828 0
-555.103 -4.67856 0
-553.493 -4.68011 0
-551.882 -4.67926 0
-550.272 -4.68011 0
-548.661 -4.6809 0
-547.05 -4.68082 0
-545.44 -4.68053 0
-543.83 -4.68397 0
-542.221 -4.68516 0
-540.61 -4.68547 0
-538.999 -4.68549 0
-537.388 -4.68638 0
-535.779 -4.68851 0
-534.169 -4.69139 0
-532.558 -4.69196 0
-530.948 -4.69219 0
-529.339 -4.69429 0
-527.73 -4.69618 0
-526.119 -4.69806 0
-524.51 -4.69908 0
-522.9 -4.69942 0
-521.289 -4.70267 0
-519.68 -4.70355 0
-518.071 -4.70508 0
-516.46 -4.70755 0
-514.85 -4.70672 0
-513.24 -4.71017 0
-511.63 -4.71101 0
-510.022 -4.7142 0
-508.413 -4.71528 0
-506.804 -4.71603 0
-505.194 -4.71622 0
-503.584 -4.71886 0
-501.976 -4.72017 0
-500.368 -4.72095 0
-498.759 -4.72436 0
-497.149 -4.7253 0
-495.538 -4.72867 0
-493.928 -4.73 0
-492.32 -4.7299 0
-490.711 -4.73061 0
-489.101 -4.73437 0
-487.491 -4.7366 0
-485.882 -4.73898 0
-484.273 -4.74017 0
-482.665 -4.7418 0
-481.056 -4.74198 0
-479.448 -4.74363 0
-477.839 -4.74657 0
-476.229 -4.74698 0
-474.619 -4.74749 0
-473.01 -4.74728 0
-471.4 -4.74784 0
-469.791 -4.74919 0
-468.182 -4.75083 0
-466.571 -4.7505 0
-464.962 -4.75366 0
-463.353 -4.75559 0
-461.744 -4.75669 0
-460.137 -4.75882 0
-458.525 -4.75723 0
-456.917 -4.75737 0
-455.307 -4.7586 0
-453.7 -4.75987 0
-452.092 -4.75998 0
-450.481 -4.7622 0
-448.871 -4.76306 0
-447.261 -4.76494 0
-445.653 -4.76507 0
-444.044 -4.764 0
-442.434 -4.76572 0
-440.827 -4.76471 0
-439.218 -4.76735 0
-437.608 -4.76559 0
-436 -4.76777 0
-434.39 -4.76936 0
-432.781 -4.76989 0
-431.171 -4.77003 0
-429.564 -4.7688 0
-427.953 -4.76999 0
-426.343 -4.76867 0
-424.735 -4.77104 0
-423.128 -4.77 0
-421.518 -4.76815 0
-419.909 -4.77052 0
-418.299 -4.77203 0
-416.69 -4.77235 0
-415.08 -4.77365 0
-413.472 -4.77184 0
-411.861 -4.77083 0
-410.253 -4.77084 0
-408.643 -4.77005 0
-407.033 -4.77199 0
-405.423 -4.7695 0
-403.815 -4.76868 0
-402.208 -4.76946 0
-400.598 -4.76823 0
-398.99 -4.76907 0
-397.381 -4.76815 0
-395.771 -4.76702 0
-394.162 -4.76841 0
-392.553 -4.76597 0
-390.946 -4.76645 0
-389.336 -4.76399 0
-387.726 -4.76344 0
-386.118 -4.76306 0
-384.509 -4.76025 0
-382.898 -4.76265 0
-381.289 -4.76026 0
-379.677 -4.76092 0
-378.07 -4.76065 0
-376.46 -4.76005 0
-374.852 -4.75771 0
-373.241 -4.75752 0
-371.631 -4.7578 0
-370.025 -4.75977 0
-368.416 -4.75926 0
-366.807 -4.75787 0
-365.199 -4.75589 0
-363.588 -4.75639 0
-361.979 -4.75566 0
-360.37 -4.75473 0
-358.76 -4.75524 0
-357.15 -4.75425 0
-355.542 -4.75466 0
-353.932 -4.75368 0
-352.322 -4.75121 0
-350.713 -4.75157 0
-349.105 -4.75095 0
-347.496 -4.74955 0
-345.888 -4.75128 0
-344.277 -4.75178 0
-342.669 -4.75327 0
-341.06 -4.74911 0
-339.451 -4.75141 0
-337.842 -4.75089 0
-336.231 -4.75118 0
-334.622 -4.74925 0
-333.014 -4.75057 0
-331.404 -4.74867 0
-329.794 -4.74642 0
-328.185 -4.74923 0
-326.575 -4.74837 0
-324.966 -4.74586 0
-323.357 -4.74819 0
-321.749 -4.74625 0
-320.139 -4.74561 0
-318.532 -4.74194 0
-316.921 -4.74174 0
-315.313 -4.74172 0
-313.702 -4.744 0
-312.093 -4.74604 0
-310.484 -4.74439 0
-308.875 -4.74415 0
-307.266 -4.74438 0
-305.658 -4.74389 0
-304.048 -4.7432 0
-302.438 -4.74332 0
-300.829 -4.74353 0
-299.22 -4.74277 0
-297.611 -4.74519 0
-296.002 -4.74183 0
-294.394 -4.74065 0
-292.786 -4.74323 0
-291.175 -4.74117 0
-289.566 -4.74319 0
-287.956 -4.74524 0
-286.346 -4.74255 0
-284.738 -4.74315 0
-283.128 -4.74249 0
-281.519 -4.74518 0
-279.91 -4.74512 0
-278.301 -4.7429 0
-276.69 -4.74388 0
-275.08 -4.74478 0
-273.472 -4.74348 0
-271.865 -4.74342 0
-270.254 -4.7432 0
-268.646 -4.7424 0
-267.038 -4.74239 0
-265.428 -4.74494 0
-263.82 -4.74593 0
-262.211 -4.74562 0
-260.601 -4.74391 0
-258.992 -4.74245 0
-257.385 -4.74161 0
-255.776 -4.74411 0
-254.168 -4.74472 0
-252.558 -4.74203 0
-250.949 -4.74515 0
-249.341 -4.74102 0
-247.733 -4.74101 0
-246.121 -4.7432 0
-244.513 -4.74234 0
-242.903 -4.74543 0
-241.294 -4.74686 0
-239.685 -4.74729 0
-238.075 -4.7481 0
-236.468 -4.74929 0
-234.858 -4.74764 0
-233.251 -4.74904 0
-231.642 -4.74863 0
-230.032 -4.74907 0
-228.423 -4.7485 0
-226.814 -4.7481 0
-225.205 -4.74878 0
-223.595 -4.75062 0
-221.988 -4.74998 0
-220.38 -4.75035 0
-218.77 -4.75029 0
-217.163 -4.75061 0
-215.553 -4.75092 0
-213.942 -4.74919 0
-212.334 -4.74876 0
-210.727 -4.74727 0
-209.116 -4.74877 0
-207.506 -4.74751 0
-205.898 -4.75015 0
-204.291 -4.74991 0
-202.683 -4.7498 0
-201.074 -4.7505 0
-199.465 -4.7507 0
-197.855 -4.75172 0
-196.245 -4.75122 0
-194.639 -4.75267 0
-193.031 -4.75396 0
-191.421 -4.75176 0
-189.812 -4.75077 0
-188.203 -4.75222 0
-186.593 -4.75183 0
-184.985 -4.75269 0
-183.374 -4.75431 0
-181.766 -4.75529 0
-180.158 -4.75306 0
-178.549 -4.75122 0
-176.94 -4.75165 0
-175.333 -4.75064 0
-173.725 -4.7515 0
-172.116 -4.75109 0
-170.506 -4.75302 0
-168.897 -4.75395 0
-167.289 -4.75346 0
-165.68 -4.75323 0
-164.073 -4.75351 0
-162.464 -4.75273 0
-160.855 -4.75247 0
-159.244 -4.75218 0
-157.636 -4.75244 0
-156.028 -4.75112 0
-154.418 -4.74983 0
-152.81 -4.75144 0
-151.202 -4.75274 0
-149.593 -4.75256 0
-147.984 -4.75339 0
-146.376 -4.75009 0
-144.766 -4.75082 0
-143.158 -4.74996 0
-141.548 -4.75017 0
-139.941 -4.74968 0
-138.333 -4.75131 0
-136.724 -4.75248 0
-135.114 -4.75152 0
-133.507 -4.75145 0
-131.898 -4.75194 0
-130.288 -4.75136 0
-128.681 -4.75169 0
-127.071 -4.752 0
-125.463 -4.75061 0
-123.855 -4.7504 0
-122.246 -4.75163 0
-120.635 -4.7508 0
-119.027 -4.75277 0
-117.419 -4.75233 0
-115.81 -4.75216 0
-114.202 -4.75111 0
-112.594 -4.75056 0
-110.985 -4.74905 0
-109.376 -4.75091 0
-107.768 -4.75229 0
-106.16 -4.75258 0
-104.552 -4.75448 0
-102.943 -4.75558 0
-101.335 -4.75345 0
-99.7245 -4.75383 0
-98.1154 -4.75195 0
-96.508 -4.75245 0
-94.8987 -4.75266 0
-93.2919 -4.75224 0
-91.6824 -4.75263 0
-90.0742 -4.75348 0
-88.4665 -4.7549 0
-86.8575 -4.75496 0
-85.2515 -4.75231 0
-83.6418 -4.75339 0
-82.0328 -4.75207 0
-80.4247 -4.75196 0
-78.8155 -4.75054 0
-77.2091 -4.7517 0
-75.5997 -4.75125 0
-73.991 -4.75205 0
-72.3804 -4.75345 0
-70.7724 -4.75353 0
-69.1631 -4.75322 0
-67.5558 -4.75294 0
-65.9467 -4.75318 0
-64.337 -4.75467 0
-62.7287 -4.75259 0
-61.1204 -4.75432 0
-59.5112 -4.752 0
-57.9033 -4.7521 0
-56.2935 -4.75162 0
-54.6852 -4.75251 0
-53.0776 -4.75225 0
-51.4692 -4.75124 0
-49.8606 -4.75252 0
-48.2509 -4.75309 0
-46.644 -4.75129 0
-45.0356 -4.75215 0
-43.426 -4.75419 0
-41.8195 -4.75258 0
-40.2092 -4.75215 0
-38.6021 -4.75301 0
-36.9938 -4.75247 0
-35.3847 -4.75276 0
-33.7753 -4.75148 0
-32.1673 -4.7517 0
-30.5601 -4.74905 0
-28.9515 -4.751 0
-27.3431 -4.75106 0
-25.7346 -4.75107 0
-24.1246 -4.75245 0
-22.5175 -4.75085 0
-20.9095 -4.75199 0
-19.3007 -4.75081 0
-17.6894 -4.74962 0
-16.0825 -4.75145 0
-14.4728 -4.74874 0
-12.8655 -4.74914 0
-11.2568 -4.74987 0
-9.64818 -4.75159 0
-8.04068 -4.75022 0
-6.4347 -4.75069 0
-4.82565 -4.74941 0
-3.21708 -4.74932 0
-1.60873 -4.74921 0
0 -4.74968 0
-1087.93 50.6141 0
-1088.03 44.4061 0
-1088.1 38.4214 0
-1088.12 32.7652 0
-1088.14 27.4672 0
-1088.21 22.4341 0
-1088.25 17.5959 0
-1088.2 13.0517 0
-1088.1 8.89179 0
-1087.97 5.13302 0
-1087.82 1.76808 0
-1087.64 -1.21437 0
-1087.42 -3.82967 0
-1087.16 -6.09757 0
-1086.86 -8.04413 0
-1086.51 -9.69703 0
-1086.11 -11.0858 0
-1085.65 -12.238 0
-1085.13 -13.1794 0
-1084.55 -13.9336 0
-1083.92 -14.5226 0
-1083.23 -14.965 0
-1082.49 -15.2794 0
-1081.7 -15.4803 0
-1080.86 -15.5809 0
-1079.98 -15.5936 0
-1079.05 -15.5289 0
-1078.09 -15.3961 0
-1077.08 -15.203 0
-1076.04 -14.9571 0
-1074.97 -14.6642 0
-1073.86 -14.3302 0
-1072.73 -13.9606 0
-1071.56 -13.559 0
-1070.36 -13.1301 0
-1069.14 -12.6773 0
-1067.88 -12.205 0
-1066.61 -11.7161 0
-1065.3 -11.2132 0
-1063.97 -10.6997 0
-1062.62 -10.1782 0
-1061.25 -9.65121 0
-1059.85 -9.12165 0
-1058.43 -8.59164 0
-1056.99 -8.06352 0
-1055.53 -7.53894 0
-1054.06 -7.01997 0
-1052.56 -6.50893 0
-1051.05 -6.00697 0
-1049.52 -5.51572 0
-1047.97 -5.03632 0
-1046.41 -4.57031 0
-1044.84 -4.11837 0
-1043.25 -3.6823 0
-1041.66 -3.2624 0
-1040.05 -2.85979 0
-1038.43 -2.47477 0
-1036.8 -2.10769 0
-1035.16 -1.75969 0
-1033.51 -1.43107 0
-1031.85 -1.12187 0
-1030.19 -0.831664 0
-1028.52 -0.561671 0
-1026.85 -0.311261 0
-1025.17 -0.0802307 0
-1023.49 0.131064 0
-1021.8 0.322893 0
-1020.11 0.495595 0
-1018.42 0.649769 0
-1016.72 0.78456 0
-1015.03 0.901769 0
-1013.33 1.00127 0
-1011.63 1.0833 0
-1009.94 1.14843 0
-1008.24 1.19695 0
-1006.54 1.23028 0
-1004.84 1.24823 0
-1003.15 1.25156 0
-1001.45 1.24117 0
-999.759 1.21655 0
-998.069 1.18013 0
-996.38 1.13126 0
-994.694 1.07124 0
-993.01 1.00027 0
-991.33 0.919447 0
-989.652 0.829577 0
-987.977 0.730669 0
-986.305 0.623207 0
-984.637 0.509101 0
-982.972 0.388001 0
-981.309 0.260989 0
-979.651 0.129244 0
-977.996 -0.00817669 0
-976.344 -0.149791 0
-974.696 -0.294642 0
-973.05 -0.443091 0
-971.408 -0.593044 0
-969.77 -0.74549 0
-968.135 -0.898889 0
-966.502 -1.0535 0
-964.873 -1.20786 0
-963.248 -1.36208 0
-961.625 -1.5163 0
-960.005 -1.66873 0
-958.389 -1.82014 0
-956.774 -1.96958 0
-955.163 -2.11692 0
-953.553 -2.26142 0
-951.947 -2.40338 0
-950.342 -2.54183 0
-948.741 -2.67682 0
-947.141 -2.80797 0
-945.542 -2.93511 0
-943.946 -3.05818 0
-942.351 -3.17692 0
-940.758 -3.29057 0
-939.167 -3.40031 0
-937.577 -3.50512 0
-935.988 -3.60512 0
-934.399 -3.69969 0
-932.812 -3.78934 0
-931.226 -3.87376 0
-929.641 -3.95328 0
-928.056 -4.0268 0
-926.472 -4.09577 0
-924.888 -4.15936 0
-923.306 -4.2182 0
-921.723 -4.27085 0
-920.14 -4.31927 0
-918.557 -4.36279 0
-916.974 -4.40062 0
-915.391 -4.43438 0
-913.808 -4.46267 0
-912.225 -4.48707 0
-910.642 -4.50589 0
-909.058 -4.52083 0
-907.474 -4.53185 0
-905.889 -4.5385 0
-904.304 -4.54075 0
-902.718 -4.53876 0
-901.132 -4.53318 0
-899.545 -4.52437 0
-897.957 -4.5126 0
-896.369 -4.49676 0
-894.78 -4.4783 0
-893.19 -4.45623 0
-891.599 -4.43155 0
-890.007 -4.40431 0
-888.414 -4.37585 0
-886.821 -4.34398 0
-885.227 -4.3097 0
-883.632 -4.27368 0
-882.036 -4.23648 0
-880.439 -4.19718 0
-878.842 -4.1561 0
-877.243 -4.1145 0
-875.643 -4.0714 0
-874.043 -4.02673 0
-872.442 -3.9819 0
-870.84 -3.93619 0
-869.237 -3.88939 0
-867.633 -3.84262 0
-866.029 -3.79466 0
-864.423 -3.74737 0
-862.817 -3.69965 0
-861.21 -3.65274 0
-859.602 -3.60534 0
-857.994 -3.559 0
-856.385 -3.51246 0
-854.775 -3.46546 0
-853.165 -3.41996 0
-851.554 -3.37507 0
-849.943 -3.3311 0
-848.33 -3.28796 0
-846.718 -3.24505 0
-845.104 -3.20388 0
-843.49 -3.16374 0
-841.876 -3.12384 0
-840.261 -3.0862 0
-838.646 -3.04856 0
-837.031 -3.01298 0
-835.415 -2.97852 0
-833.798 -2.94538 0
-832.182 -2.9146 0
-830.565 -2.88401 0
-828.948 -2.85503 0
-827.331 -2.8276 0
-825.713 -2.80113 0
-824.096 -2.7769 0
-822.478 -2.75375 0
-820.86 -2.7321 0
-819.242 -2.71185 0
-817.624 -2.69321 0
-816.006 -2.67644 0
-814.389 -2.65994 0
-812.771 -2.64581 0
-811.153 -2.63326 0
-809.535 -2.62262 0
-807.917 -2.61242 0
-806.298 -2.60398 0
-804.68 -2.59756 0
-803.062 -2.59081 0
-801.444 -2.58701 0
-799.826 -2.58409 0
-798.209 -2.58124 0
-796.591 -2.57945 0
-794.974 -2.57982 0
-793.357 -2.5824 0
-791.74 -2.58527 0
-790.124 -2.58924 0
-788.507 -2.5948 0
-786.89 -2.60033 0
-785.274 -2.60603 0
-783.659 -2.61313 0
-782.043 -2.62114 0
-780.427 -2.63077 0
-778.813 -2.64085 0
-777.198 -2.65105 0
-775.583 -2.6625 0
-773.969 -2.67435 0
-772.354 -2.68615 0
-770.74 -2.69866 0
-769.127 -2.71245 0
-767.513 -2.72605 0
-765.9 -2.74126 0
-764.287 -2.75604 0
-762.674 -2.7705 0
-761.061 -2.78611 0
-759.449 -2.80126 0
-757.837 -2.81804 0
-756.225 -2.83372 0
-754.614 -2.84871 0
-753.003 -2.86512 0
-751.392 -2.88196 0
-749.781 -2.89844 0
-748.172 -2.91472 0
-746.561 -2.93046 0
-744.951 -2.94641 0
-743.341 -2.96261 0
-741.732 -2.97775 0
-740.122 -2.9927 0
-738.513 -3.00807 0
-736.903 -3.02345 0
-735.294 -3.03731 0
-733.685 -3.05159 0
-732.077 -3.06671 0
-730.469 -3.08063 0
-728.861 -3.09329 0
-727.252 -3.10727 0
-725.644 -3.11879 0
-724.035 -3.13213 0
-722.428 -3.14565 0
-720.819 -3.15726 0
-719.212 -3.16797 0
-717.604 -3.1789 0
-715.997 -3.18985 0
-714.39 -3.20121 0
-712.782 -3.21075 0
-711.174 -3.2218 0
-709.567 -3.2307 0
-707.959 -3.23831 0
-706.352 -3.24583 0
-704.745 -3.25336 0
-703.138 -3.25982 0
-701.532 -3.26657 0
-699.924 -3.27317 0
-698.317 -3.28017 0
-696.71 -3.28407 0
-695.102 -3.28737 0
-693.495 -3.29151 0
-691.888 -3.29536 0
-690.281 -3.29904 0
-688.673 -3.30309 0
-687.065 -3.30442 0
-685.458 -3.30804 0
-683.852 -3.30928 0
-682.244 -3.31159 0
-680.638 -3.31203 0
-679.031 -3.31335 0
-677.423 -3.31322 0
-675.815 -3.31281 0
-674.207 -3.31309 0
-672.601 -3.31324 0
-670.993 -3.3119 0
-669.386 -3.31123 0
-667.779 -3.30966 0
-666.171 -3.30758 0
-664.563 -3.30562 0
-662.956 -3.3023 0
-661.347 -3.29997 0
-659.74 -3.2971 0
-658.131 -3.29426 0
-656.523 -3.29162 0
-654.914 -3.2893 0
-653.305 -3.28477 0
-651.697 -3.28009 0
-650.088 -3.27543 0
-648.48 -3.27167 0
-646.873 -3.26932 0
-645.264 -3.2644 0
-643.655 -3.25981 0
-642.046 -3.25622 0
-640.437 -3.25083 0
-638.828 -3.24797 0
-637.219 -3.24423 0
-635.609 -3.23923 0
-634.001 -3.23423 0
-632.391 -3.22859 0
-630.781 -3.22408 0
-629.173 -3.21924 0
-627.564 -3.21504 0
-625.954 -3.21002 0
-624.344 -3.2043 0
-622.734 -3.19892 0
-621.125 -3.19364 0
-619.515 -3.18964 0
-617.906 -3.18557 0
-616.297 -3.18185 0
-614.687 -3.1766 0
-613.077 -3.17278 0
-611.466 -3.16765 0
-609.856 -3.1638 0
-608.246 -3.15892 0
-606.636 -3.1551 0
-605.025 -3.15061 0
-603.415 -3.14696 0
-601.805 -3.14438 0
-600.195 -3.14043 0
-598.586 -3.13589 0
-596.976 -3.1322 0
-595.366 -3.12843 0
-593.754 -3.12572 0
-592.144 -3.12272 0
-590.532 -3.12097 0
-588.922 -3.11883 0
-587.312 -3.11568 0
-585.702 -3.11273 0
-584.092 -3.11154 0
-582.48 -3.10869 0
-580.87 -3.10707 0
-579.261 -3.10466 0
-577.651 -3.10364 0
-576.038 -3.10206 0
-574.429 -3.10034 0
-572.818 -3.10083 0
-571.208 -3.09781 0
-569.597 -3.09544 0
-567.987 -3.09485 0
-566.376 -3.09326 0
-564.766 -3.0931 0
-563.154 -3.09319 0
-561.544 -3.09412 0
-559.934 -3.09375 0
-558.323 -3.09408 0
-556.713 -3.09319 0
-555.103 -3.09395 0
-553.492 -3.09427 0
-551.881 -3.09478 0
-550.272 -3.09431 0
-548.661 -3.09463 0
-547.051 -3.0949 0
-545.442 -3.09584 0
-543.831 -3.0978 0
-542.22 -3.09959 0
-540.61 -3.10006 0
-539 -3.1009 0
-537.39 -3.10139 0
-535.78 -3.10278 0
-534.169 -3.10439 0
-532.56 -3.10557 0
-530.95 -3.10761 0
-529.34 -3.10927 0
-527.73 -3.11169 0
-526.121 -3.11144 0
-524.511 -3.11446 0
-522.901 -3.11499 0
-521.291 -3.11701 0
-519.682 -3.11654 0
-518.071 -3.11932 0
-516.462 -3.12199 0
-514.852 -3.1227 0
-513.242 -3.12469 0
-511.633 -3.12666 0
-510.023 -3.12814 0
-508.415 -3.13042 0
-506.805 -3.12986 0
-505.196 -3.13173 0
-503.587 -3.13392 0
-501.977 -3.13589 0
-500.369 -3.1379 0
-498.76 -3.13932 0
-497.15 -3.1412 0
-495.541 -3.14366 0
-493.931 -3.14368 0
-492.321 -3.14546 0
-490.712 -3.14741 0
-489.103 -3.14899 0
-487.493 -3.15176 0
-485.883 -3.15316 0
-484.275 -3.15542 0
-482.666 -3.15719 0
-481.057 -3.15833 0
-479.448 -3.15994 0
-477.839 -3.16166 0
-476.23 -3.16096 0
-474.62 -3.16256 0
-473.011 -3.16315 0
-471.4 -3.16445 0
-469.791 -3.16468 0
-468.183 -3.1654 0
-466.573 -3.16595 0
-464.963 -3.1686 0
-463.353 -3.17111 0
-461.747 -3.17333 0
-460.137 -3.17354 0
-458.526 -3.1725 0
-456.916 -3.17409 0
-455.308 -3.1749 0
-453.699 -3.17459 0
-452.091 -3.17632 0
-450.481 -3.1757 0
-448.872 -3.17776 0
-447.262 -3.17966 0
-445.654 -3.18038 0
-444.045 -3.17859 0
-442.435 -3.18034 0
-440.826 -3.18122 0
-439.217 -3.18246 0
-437.609 -3.18124 0
-436 -3.18198 0
-434.39 -3.1834 0
-432.782 -3.18451 0
-431.172 -3.18469 0
-429.562 -3.1843 0
-427.954 -3.18464 0
-426.343 -3.18525 0
-424.736 -3.18555 0
-423.127 -3.18558 0
-421.518 -3.18502 0
-419.91 -3.18565 0
-418.3 -3.1865 0
-416.691 -3.18716 0
-415.081 -3.18813 0
-413.469 -3.18631 0
-411.861 -3.18635 0
-410.252 -3.18741 0
-408.643 -3.18618 0
-407.033 -3.18695 0
-405.425 -3.18676 0
-403.815 -3.1856 0
-402.207 -3.18515 0
-400.598 -3.18293 0
-398.99 -3.18406 0
-397.381 -3.1827 0
-395.772 -3.18356 0
-394.162 -3.18285 0
-392.553 -3.18157 0
-390.943 -3.18157 0
-389.334 -3.17915 0
-387.725 -3.17893 0
-386.116 -3.17824 0
-384.508 -3.17691 0
-382.898 -3.17683 0
-381.287 -3.17563 0
-379.679 -3.1758 0
-378.07 -3.17574 0
-376.46 -3.17479 0
-374.851 -3.17431 0
-373.243 -3.17275 0
-371.634 -3.17343 0
-370.025 -3.17304 0
-368.415 -3.17325 0
-366.805 -3.17274 0
-365.197 -3.17138 0
-363.588 -3.17186 0
-361.978 -3.17121 0
-360.369 -3.17158 0
-358.759 -3.1706 0
-357.15 -3.1685 0
-355.542 -3.16892 0
-353.932 -3.16862 0
-352.322 -3.16734 0
-350.714 -3.1657 0
-349.104 -3.16621 0
-347.495 -3.16542 0
-345.888 -3.16634 0
-344.279 -3.16686 0
-342.67 -3.1663 0
-341.061 -3.16685 0
-339.451 -3.16601 0
-337.841 -3.16511 0
-336.231 -3.16626 0
-334.622 -3.1652 0
-333.015 -3.16464 0
-331.405 -3.1631 0
-329.795 -3.16204 0
-328.184 -3.1634 0
-326.576 -3.16318 0
-324.966 -3.16171 0
-323.357 -3.16147 0
-321.747 -3.16261 0
-320.139 -3.15987 0
-318.53 -3.15645 0
-316.921 -3.15649 0
-315.312 -3.15696 0
-313.703 -3.15794 0
-312.093 -3.15998 0
-310.483 -3.15933 0
-308.874 -3.15992 0
-307.265 -3.1606 0
-305.656 -3.15855 0
-304.046 -3.1587 0
-302.437 -3.15883 0
-300.829 -3.15742 0
-299.221 -3.15943 0
-297.611 -3.15992 0
-296.002 -3.1599 0
-294.393 -3.15808 0
-292.783 -3.15841 0
-291.175 -3.15811 0
-289.566 -3.15892 0
-287.956 -3.16063 0
-286.347 -3.15857 0
-284.738 -3.15934 0
-283.128 -3.15744 0
-281.519 -3.15916 0
-279.911 -3.1602 0
-278.3 -3.15949 0
-276.691 -3.15945 0
-275.082 -3.16008 0
-273.473 -3.15872 0
-271.864 -3.15931 0
-270.257 -3.16061 0
-268.648 -3.15728 0
-267.037 -3.15973 0
-265.429 -3.15872 0
-263.82 -3.16057 0
-262.21 -3.15906 0
-260.6 -3.16024 0
-258.992 -3.15896 0
-257.385 -3.15892 0
-255.776 -3.15921 0
-254.166 -3.15873 0
-252.557 -3.15889 0
-250.948 -3.15933 0
-249.339 -3.15972 0
-247.731 -3.15795 0
-246.123 -3.1572 0
-244.513 -3.15955 0
-242.903 -3.16034 0
-241.294 -3.16181 0
-239.687 -3.16323 0
-238.076 -3.16474 0
-236.466 -3.16312 0
-234.857 -3.16361 0
-233.249 -3.16441 0
-231.641 -3.16377 0
-230.031 -3.16532 0
-228.423 -3.16427 0
-226.815 -3.16308 0
-225.206 -3.16397 0
-223.596 -3.16519 0
-221.99 -3.16586 0
-220.379 -3.16596 0
-218.771 -3.16551 0
-217.162 -3.16728 0
-215.552 -3.16513 0
-213.943 -3.1642 0
-212.334 -3.16496 0
-210.724 -3.16388 0
-209.116 -3.16288 0
-207.508 -3.16503 0
-205.9 -3.16542 0
-204.291 -3.16602 0
-202.683 -3.16539 0
-201.075 -3.16601 0
-199.465 -3.16463 0
-197.855 -3.16745 0
-196.247 -3.16835 0
-194.639 -3.16892 0
-193.03 -3.16804 0
-191.42 -3.16755 0
-189.812 -3.16651 0
-188.204 -3.1668 0
-186.596 -3.16869 0
-184.985 -3.16845 0
-183.375 -3.16951 0
-181.767 -3.16933 0
-180.158 -3.16914 0
-178.55 -3.16878 0
-176.941 -3.1673 0
-175.333 -3.168 0
-173.724 -3.1675 0
-172.116 -3.1671 0
-170.508 -3.16933 0
-168.897 -3.16873 0
-167.289 -3.16947 0
-165.681 -3.1708 0
-164.072 -3.16907 0
-162.463 -3.1684 0
-160.855 -3.16777 0
-159.246 -3.16678 0
-157.636 -3.16838 0
-156.028 -3.16636 0
-154.421 -3.16659 0
-152.81 -3.16713 0
-151.202 -3.16879 0
-149.593 -3.16836 0
-147.983 -3.16829 0
-146.374 -3.16717 0
-144.767 -3.16675 0
-143.157 -3.16656 0
-141.55 -3.16574 0
-139.941 -3.16676 0
-138.332 -3.16677 0
-136.723 -3.16717 0
-135.115 -3.16788 0
-133.507 -3.16714 0
-131.898 -3.16709 0
-130.289 -3.16708 0
-128.68 -3.16731 0
-127.072 -3.16808 0
-125.464 -3.16634 0
-123.854 -3.1671 0
-122.245 -3.16725 0
-120.636 -3.16758 0
-119.029 -3.16742 0
-117.419 -3.16874 0
-115.81 -3.16796 0
-114.201 -3.16738 0
-112.594 -3.16646 0
-110.986 -3.16636 0
-109.378 -3.16659 0
-107.77 -3.16826 0
-106.161 -3.16801 0
-104.552 -3.16932 0
-102.943 -3.16912 0
-101.332 -3.16894 0
-99.7252 -3.17 0
-98.1167 -3.16935 0
-96.5089 -3.16843 0
-94.9012 -3.16883 0
-93.2927 -3.16988 0
-91.6838 -3.1693 0
-90.0744 -3.16837 0
-88.4674 -3.17036 0
-86.8576 -3.17161 0
-85.2494 -3.16943 0
-83.6414 -3.16937 0
-82.0321 -3.16809 0
-80.4243 -3.16825 0
-78.8151 -3.16817 0
-77.2069 -3.16939 0
-75.5984 -3.16652 0
-73.9892 -3.16716 0
-72.381 -3.17002 0
-70.7717 -3.16954 0
-69.1633 -3.16982 0
-67.5553 -3.16905 0
-65.946 -3.16927 0
-64.3373 -3.16928 0
-62.7291 -3.16845 0
-61.1206 -3.16785 0
-59.5117 -3.16805 0
-57.9035 -3.16763 0
-56.2948 -3.16761 0
-54.6859 -3.16842 0
-53.0785 -3.16904 0
-51.4688 -3.16721 0
-49.8611 -3.16815 0
-48.2521 -3.1696 0
-46.6441 -3.16851 0
-45.0373 -3.16796 0
-43.4283 -3.16881 0
-41.8194 -3.16868 0
-40.2102 -3.16904 0
-38.6023 -3.16762 0
-36.9929 -3.16829 0
-35.3846 -3.16826 0
-33.7766 -3.16729 0
-32.1677 -3.16744 0
-30.5592 -3.16666 0
-28.9523 -3.16729 0
-27.3428 -3.16713 0
-25.7338 -3.16652 0
-24.1249 -3.16687 0
-22.5163 -3.16804 0
-20.909 -3.16812 0
-19.3002 -3.16629 0
-17.69 -3.16521 0
-16.081 -3.16667 0
-14.4733 -3.16565 0
-12.8656 -3.16584 0
-11.2579 -3.16671 0
-9.65013 -3.16734 0
-8.04113 -3.16705 0
-6.43268 -3.16665 0
-4.82343 -3.16678 0
-3.21652 -3.16682 0
-1.60823 -3.16589 0
0 -3.16632 0
-1094.43 51.3073 0
-1094.1 44.8755 0
-1093.9 38.9112 0
-1093.67 33.2599 0
-1093.43 27.8949 0
-1093.19 22.8111 0
-1092.92 18.0215 0
-1092.58 13.5333 0
-1092.15 9.38859 0
-1091.66 5.62853 0
-1091.15 2.26098 0
-1090.61 -0.720183 0
-1090.04 -3.32878 0
-1089.45 -5.58453 0
-1088.84 -7.51226 0
-1088.21 -9.14022 0
-1087.54 -10.4981 0
-1086.85 -11.6146 0
-1086.12 -12.5174 0
-1085.36 -13.2312 0
-1084.56 -13.7786 0
-1083.72 -14.1801 0
-1082.85 -14.4538 0
-1081.95 -14.6153 0
-1081.01 -14.678 0
-1080.04 -14.6539 0
-1079.03 -14.5546 0
-1078 -14.3882 0
-1076.93 -14.1629 0
-1075.84 -13.8862 0
-1074.72 -13.5637 0
-1073.57 -13.2011 0
-1072.4 -12.8034 0
-1071.2 -12.3753 0
-1069.97 -11.92 0
-1068.72 -11.4423 0
-1067.45 -10.9452 0
-1066.16 -10.4322 0
-1064.84 -9.90621 0
-1063.5 -9.37002 0
-1062.14 -8.82699 0
-1060.76 -8.27903 0
-1059.36 -7.72909 0
-1057.94 -7.17949 0
-1056.51 -6.63209 0
-1055.05 -6.08965 0
-1053.58 -5.55359 0
-1052.09 -5.02588 0
-1050.59 -4.50862 0
-1049.07 -4.00219 0
-1047.53 -3.50873 0
-1045.99 -3.02931 0
-1044.43 -2.56507 0
-1042.85 -2.11725 0
-1041.27 -1.68645 0
-1039.68 -1.27356 0
-1038.07 -0.878805 0
-1036.46 -0.503474 0
-1034.84 -0.147063 0
-1033.21 0.189111 0
-1031.57 0.50503 0
-1029.93 0.801347 0
-1028.28 1.07678 0
-1026.62 1.33214 0
-1024.96 1.56724 0
-1023.3 1.78251 0
-1021.63 1.97776 0
-1019.96 2.15314 0
-1018.28 2.30908 0
-1016.6 2.44633 0
-1014.92 2.56439 0
-1013.24 2.665 0
-1011.56 2.74753 0
-1009.88 2.81304 0
-1008.2 2.86157 0
-1006.51 2.89442 0
-1004.83 2.91129 0
-1003.15 2.91334 0
-1001.47 2.9017 0
-999.787 2.87537 0
-998.108 2.83726 0
-996.43 2.7867 0
-994.755 2.72415 0
-993.081 2.65109 0
-991.41 2.56753 0
-989.741 2.47492 0
-988.074 2.37347 0
-986.41 2.26363 0
-984.748 2.14624 0
-983.088 2.02217 0
-981.432 1.89216 0
-979.778 1.7571 0
-978.127 1.61688 0
-976.479 1.47254 0
-974.834 1.3244 0
-973.191 1.17336 0
-971.552 1.0195 0
-969.915 0.864557 0
-968.281 0.708035 0
-966.649 0.551121 0
-965.021 0.39361 0
-963.395 0.236245 0