<?xml version="1.0"?>
<VTKFile type="StructuredGrid"  version="0.1" byte_order="LittleEndian" compressor="vtkZLibDataCompressor">
  <StructuredGrid WholeExtent="0 700 0 30 0 0">
    <Piece Extent="0 700 0 30 0 0">
      <PointData Vectors="Velocity">
        <DataArray type="Float32" Name="Velocity" NumberOfComponents="3" format="ascii">
-1040.87 580.561 0
-1040.9 563.781 0
-1041.01 547.138 0
-1041.16 530.764 0
-1041.35 514.665 0
-1041.55 498.917 0
-1041.79 483.535 0
-1042 468.501 0
-1042.21 453.828 0
-1042.42 439.505 0
-1042.64 425.565 0
-1042.83 411.973 0
-1043 398.718 0
-1043.17 385.786 0
-1043.3 373.165 0
-1043.43 360.884 0
-1043.49 348.914 0
-1043.53 337.257 0
-1043.56 325.88 0
-1043.53 314.782 0
-1043.48 303.959 0
-1043.38 293.379 0
-1043.28 283.048 0
-1043.12 272.944 0
-1042.94 263.097 0
-1042.73 253.486 0
-1042.51 244.07 0
-1042.23 234.862 0
-1041.98 225.885 0
-1041.69 217.095 0
-1041.37 208.488 0
-1041.06 200.098 0
-1040.71 191.887 0
-1040.36 183.844 0
-1040 175.976 0
-1039.63 168.291 0
-1039.21 160.811 0
-1038.8 153.507 0
-1038.38 146.375 0
-1037.95 139.422 0
-1037.51 132.619 0
-1037.04 125.984 0
-1036.59 119.548 0
-1036.11 113.266 0
-1035.61 107.171 0
-1035.12 101.227 0
-1034.58 95.399 0
-1034.06 89.7862 0
-1033.51 84.329 0
-1032.93 78.9751 0
-1032.33 73.7883 0
-1031.73 68.7664 0
-1031.1 63.921 0
-1030.45 59.2172 0
-1029.76 54.6349 0
-1029.08 50.1726 0
-1028.39 45.8441 0
-1027.67 41.7101 0
-1026.94 37.6708 0
-1026.17 33.7698 0
-1025.38 29.9764 0
-1024.6 26.3084 0
-1023.79 22.7637 0
-1022.96 19.3349 0
-1022.12 16.0111 0
-1021.21 12.7913 0
-1020.35 9.71113 0
-1019.48 6.71161 0
-1018.57 3.8463 0
-1017.65 1.07797 0
-1016.69 -1.60203 0
-1015.76 -4.18243 0
-1014.78 -6.64199 0
-1013.75 -9.03983 0
-1012.77 -11.3623 0
-1011.74 -13.5468 0
-1010.72 -15.6796 0
-1009.67 -17.6828 0
-1008.58 -19.6422 0
-1007.49 -21.4859 0
-1006.38 -23.2607 0
-1005.29 -24.98 0
-1004.16 -26.5965 0
-1003.02 -28.152 0
-1001.85 -29.6677 0
-1000.69 -31.0979 0
-999.52 -32.4671 0
-998.328 -33.7621 0
-997.112 -34.9601 0
-995.885 -36.1331 0
-994.655 -37.2685 0
-993.412 -38.2807 0
-992.154 -39.2794 0
-990.876 -40.2104 0
-989.608 -41.0942 0
-988.315 -41.9152 0
-986.996 -42.6807 0
-985.673 -43.4237 0
-984.341 -44.1139 0
-982.996 -44.7305 0
-981.662 -45.3307 0
-980.29 -45.8848 0
-978.92 -46.4005 0
-977.532 -46.8606 0
-976.175 -47.3038 0
-974.787 -47.6849 0
-973.348 -48.0304 0
-971.934 -48.3499 0
-970.527 -48.6494 0
-969.112 -48.9004 0
-967.68 -49.1024 0
-966.214 -49.3041 0
-964.775 -49.4549 0
-963.311 -49.5711 0
-961.839 -49.6718 0
-960.371 -49.735 0
-958.898 -49.779 0
-957.401 -49.7992 0
-955.898 -49.8057 0
-954.396 -49.7744 0
-952.893 -49.7526 0
-951.346 -49.6639 0
-949.812 -49.5778 0
-948.271 -49.5073 0
-946.724 -49.395 0
-945.188 -49.2366 0
-943.616 -49.0856 0
-942.057 -48.8974 0
-940.513 -48.6876 0
-938.932 -48.529 0
-937.362 -48.2904 0
-935.774 -48.0414 0
-934.189 -47.7996 0
-932.584 -47.557 0
-930.982 -47.2788 0
-929.358 -47.021 0
-927.765 -46.7141 0
-926.156 -46.421 0
-924.541 -46.0934 0
-922.925 -45.7823 0
-921.264 -45.4692 0
-919.652 -45.1551 0
-918.031 -44.8144 0
-916.385 -44.4706 0
-914.745 -44.1257 0
-913.129 -43.7763 0
-911.472 -43.4194 0
-909.803 -43.0346 0
-908.16 -42.6942 0
-906.494 -42.3302 0
-904.837 -41.9382 0
-903.193 -41.5971 0
-901.566 -41.227 0
-899.912 -40.8418 0
-898.253 -40.4546 0
-896.595 -40.0918 0
-894.935 -39.7045 0
-893.262 -39.2929 0
-891.577 -38.8884 0
-889.887 -38.5254 0
-888.209 -38.1305 0
-886.532 -37.7442 0
-884.876 -37.3708 0
-883.206 -36.9843 0
-881.513 -36.5933 0
-879.838 -36.2253 0
-878.163 -35.8034 0
-876.46 -35.4668 0
-874.786 -35.0824 0
-873.096 -34.6806 0
-871.405 -34.3071 0
-869.729 -33.9491 0
-868.044 -33.5871 0
-866.33 -33.2199 0
-864.637 -32.8474 0
-862.968 -32.4852 0
-861.285 -32.1419 0
-859.593 -31.8073 0
-857.893 -31.4514 0
-856.207 -31.1319 0
-854.532 -30.81 0
-852.82 -30.4888 0
-851.136 -30.1574 0
-849.421 -29.8173 0
-847.741 -29.4963 0
-846.068 -29.157 0
-844.382 -28.8304 0
-842.688 -28.5191 0
-841.011 -28.1942 0
-839.323 -27.8864 0
-837.642 -27.5929 0
-835.931 -27.2873 0
-834.251 -26.9827 0
-832.583 -26.691 0
-830.871 -26.4333 0
-829.18 -26.1576 0
-827.5 -25.8822 0
-825.839 -25.6227 0
-824.161 -25.3409 0
-822.479 -25.0832 0
-820.806 -24.8513 0
-819.115 -24.572 0
-817.475 -24.3338 0
-815.784 -24.0794 0
-814.082 -23.8406 0
-812.425 -23.5824 0
-810.773 -23.3509 0
-809.067 -23.1303 0
-807.406 -22.8967 0
-805.728 -22.6363 0
-804.038 -22.4196 0
-802.357 -22.2119 0
-800.684 -21.9958 0
-799.011 -21.7851 0
-797.341 -21.5732 0
-795.684 -21.3692 0
-794.026 -21.1696 0
-792.335 -20.9734 0
-790.654 -20.7641 0
-789.019 -20.5807 0
-787.359 -20.3687 0
-785.669 -20.1523 0
-784.022 -19.9668 0
-782.342 -19.7976 0
-780.67 -19.6201 0
-779.01 -19.4128 0
-777.35 -19.2302 0
-775.674 -19.089 0
-774.016 -18.9 0
-772.33 -18.7045 0
-770.664 -18.5398 0
-768.998 -18.3882 0
-767.337 -18.2164 0
-765.676 -18.0476 0
-764.033 -17.8783 0
-762.384 -17.7208 0
-760.742 -17.5737 0
-759.069 -17.3891 0
-757.398 -17.2909 0
-755.745 -17.114 0
-754.084 -16.9538 0
-752.46 -16.8163 0
-750.8 -16.6567 0
-749.135 -16.4643 0
-747.495 -16.3354 0
-745.843 -16.2051 0
-744.195 -16.0663 0
-742.556 -15.9182 0
-740.927 -15.7818 0
-739.293 -15.6194 0
-737.633 -15.4991 0
-736.002 -15.3688 0
-734.378 -15.2066 0
-732.72 -15.0709 0
-731.082 -14.9452 0
-729.452 -14.7923 0
-727.816 -14.6499 0
-726.171 -14.5087 0
-724.539 -14.4097 0
-722.907 -14.2822 0
-721.253 -14.1442 0
-719.608 -14.0082 0
-717.974 -13.8589 0
-716.338 -13.7263 0
-714.695 -13.5987 0
-713.043 -13.4747 0
-711.381 -13.3604 0
-709.755 -13.2472 0
-708.127 -13.1097 0
-706.499 -12.9789 0
-704.854 -12.8566 0
-703.213 -12.712 0
-701.587 -12.5938 0
-699.946 -12.4604 0
-698.324 -12.3439 0
-696.682 -12.1982 0
-695.047 -12.0739 0
-693.397 -11.9445 0
-691.758 -11.8188 0
-690.118 -11.6906 0
-688.503 -11.5485 0
-686.874 -11.4231 0
-685.23 -11.2864 0
-683.615 -11.1718 0
-681.979 -11.0278 0
-680.346 -10.9125 0
-678.706 -10.7764 0
-677.084 -10.6506 0
-675.451 -10.5301 0
-673.829 -10.3947 0
-672.212 -10.2689 0
-670.598 -10.1369 0
-668.962 -9.996 0
-667.333 -9.86606 0
-665.707 -9.7369 0
-664.078 -9.61033 0
-662.455 -9.48588 0
-660.829 -9.33882 0
-659.203 -9.19194 0
-657.596 -9.07564 0
-655.974 -8.9378 0
-654.337 -8.78635 0
-652.712 -8.65491 0
-651.093 -8.50251 0
-649.464 -8.36618 0
-647.84 -8.22286 0
-646.199 -8.09276 0
-644.575 -7.94764 0
-642.954 -7.80188 0
-641.326 -7.6694 0
-639.692 -7.5388 0
-638.076 -7.38547 0
-636.443 -7.26009 0
-634.805 -7.10543 0
-633.174 -6.96831 0
-631.55 -6.82017 0
-629.919 -6.67888 0
-628.289 -6.53087 0
-626.665 -6.37281 0
-625.025 -6.22833 0
-623.388 -6.09368 0
-621.764 -5.95334 0
-620.144 -5.80522 0
-618.511 -5.65596 0
-616.886 -5.52495 0
-615.256 -5.37612 0
-613.622 -5.23512 0
-611.994 -5.08879 0
-610.363 -4.95128 0
-608.73 -4.80654 0
-607.097 -4.6635 0
-605.458 -4.50914 0
-603.825 -4.37475 0
-602.201 -4.22227 0
-600.57 -4.0831 0
-598.936 -3.94449 0
-597.296 -3.79923 0
-595.659 -3.65645 0
-594.029 -3.5163 0
-592.399 -3.3745 0
-590.766 -3.21989 0
-589.124 -3.07976 0
-587.491 -2.94833 0
-585.861 -2.80582 0
-584.224 -2.67684 0
-582.593 -2.52764 0
-580.958 -2.37476 0
-579.326 -2.24168 0
-577.691 -2.09655 0
-576.058 -1.95311 0
-574.419 -1.82435 0
-572.78 -1.69026 0
-571.142 -1.55047 0
-569.505 -1.41371 0
-567.869 -1.29639 0
-566.217 -1.16381 0
-564.588 -1.03337 0
-562.955 -0.901014 0
-561.309 -0.770701 0
-559.672 -0.641651 0
-558.029 -0.512486 0
-556.398 -0.383583 0
-554.754 -0.262891 0
-553.108 -0.135924 0
-551.473 -0.0165949 0
-549.832 0.100841 0
-548.201 0.226888 0
-546.557 0.348312 0
-544.917 0.451221 0
-543.278 0.568372 0
-541.635 0.693827 0
-539.995 0.800935 0
-538.357 0.92041 0
-536.715 1.03836 0
-535.069 1.15235 0
-533.428 1.27187 0
-531.785 1.38075 0
-530.139 1.48805 0
-528.492 1.59289 0
-526.849 1.69784 0
-525.205 1.79725 0
-523.559 1.90134 0
-521.914 2.00542 0
-520.269 2.10602 0
-518.622 2.20802 0
-516.966 2.30373 0
-515.33 2.4008 0
-513.677 2.48965 0
-512.034 2.57877 0
-510.394 2.67176 0
-508.745 2.75839 0
-507.096 2.8545 0
-505.449 2.93086 0
-503.8 3.02536 0
-502.143 3.10392 0
-500.495 3.18763 0
-498.854 3.26779 0
-497.205 3.35008 0
-495.549 3.429 0
-493.907 3.50609 0
-492.261 3.58638 0
-490.613 3.65752 0
-488.961 3.73366 0
-487.306 3.80175 0
-485.651 3.87075 0
-483.999 3.93284 0
-482.354 3.99678 0
-480.7 4.06071 0
-479.045 4.12009 0
-477.382 4.17715 0
-475.731 4.24507 0
-474.077 4.30226 0
-472.42 4.35101 0
-470.774 4.40753 0
-469.124 4.45532 0
-467.471 4.50557 0
-465.811 4.55528 0
-464.159 4.60454 0
-462.51 4.63655 0
-460.859 4.68021 0
-459.202 4.71832 0
-457.536 4.74912 0
-455.888 4.79042 0
-454.233 4.82683 0
-452.579 4.85362 0
-450.921 4.88483 0
-449.269 4.90417 0
-447.616 4.933 0
-445.956 4.95809 0
-444.302 4.97592 0
-442.646 4.99748 0
-440.99 5.01951 0
-439.334 5.03431 0
-437.686 5.05779 0
-436.024 5.0658 0
-434.368 5.08258 0
-432.708 5.08523 0
-431.052 5.09396 0
-429.4 5.10201 0
-427.739 5.1088 0
-426.086 5.11276 0
-424.428 5.11435 0
-422.779 5.11985 0
-421.117 5.11265 0
-419.47 5.11218 0
-417.811 5.10434 0
-416.15 5.10006 0
-414.503 5.08652 0
-412.839 5.07228 0
-411.186 5.0563 0
-409.526 5.04112 0
-407.868 5.02369 0
-406.215 5.01657 0
-404.564 4.98912 0
-402.901 4.97252 0
-401.246 4.94748 0
-399.589 4.91892 0
-397.932 4.89222 0
-396.276 4.86306 0
-394.619 4.83817 0
-392.967 4.80907 0
-391.314 4.77851 0
-389.656 4.73902 0
-388.008 4.70632 0
-386.353 4.67076 0
-384.692 4.63329 0
-383.039 4.5976 0
-381.387 4.56438 0
-379.738 4.51591 0
-378.082 4.46725 0
-376.425 4.43449 0
-374.776 4.38516 0
-373.117 4.33475 0
-371.464 4.28548 0
-369.811 4.24121 0
-368.164 4.20048 0
-366.504 4.1552 0
-364.855 4.08925 0
-363.204 4.02993 0
-361.565 3.98844 0
-359.915 3.92979 0
-358.261 3.86295 0
-356.607 3.80861 0
-354.959 3.74315 0
-353.301 3.67783 0
-351.654 3.61758 0
-350 3.5517 0
-348.361 3.49081 0
-346.712 3.43371 0
-345.053 3.36926 0
-343.407 3.30852 0
-341.757 3.24026 0
-340.109 3.17805 0
-338.461 3.11157 0
-336.821 3.04541 0
-335.173 2.96985 0
-333.524 2.90973 0
-331.875 2.83689 0
-330.239 2.76841 0
-328.594 2.69623 0
-326.952 2.63043 0
-325.301 2.55272 0
-323.653 2.48853 0
-322.007 2.42241 0
-320.361 2.34909 0
-318.717 2.26763 0
-317.069 2.19539 0
-315.434 2.13302 0
-313.781 2.05753 0
-312.142 1.98716 0
-310.498 1.90711 0
-308.861 1.83524 0
-307.208 1.77972 0
-305.569 1.70045 0
-303.938 1.63098 0
-302.294 1.56475 0
-300.652 1.48788 0
-299.006 1.41324 0
-297.369 1.34083 0
-295.73 1.27616 0
-294.091 1.20044 0
-292.452 1.12363 0
-290.818 1.06581 0
-289.188 0.995859 0
-287.548 0.92555 0
-285.921 0.862971 0
-284.279 0.804421 0
-282.635 0.726052 0
-280.999 0.653606 0
-279.363 0.586525 0
-277.73 0.518263 0
-276.084 0.457066 0
-274.451 0.393454 0
-272.821 0.333298 0
-271.18 0.266744 0
-269.539 0.200883 0
-267.912 0.138726 0
-266.276 0.0793524 0
-264.635 0.0121152 0
-262.994 -0.0472132 0
-261.355 -0.111383 0
-259.731 -0.171522 0
-258.106 -0.22158 0
-256.463 -0.279958 0
-254.833 -0.346311 0
-253.206 -0.391155 0
-251.568 -0.453249 0
-249.937 -0.519808 0
-248.314 -0.567832 0
-246.671 -0.623147 0
-245.04 -0.684154 0
-243.405 -0.733175 0
-241.775 -0.786123 0
-240.145 -0.83794 0
-238.516 -0.89092 0
-236.877 -0.93396 0
-235.256 -0.975389 0
-233.623 -1.02077 0
-232 -1.07653 0
-230.375 -1.13156 0
-228.742 -1.17466 0
-227.113 -1.20756 0
-225.48 -1.24515 0
-223.845 -1.29054 0
-222.223 -1.33706 0
-220.579 -1.37616 0
-218.953 -1.4218 0
-217.324 -1.46592 0
-215.706 -1.51042 0
-214.082 -1.54676 0
-212.437 -1.57662 0
-210.814 -1.61384 0
-209.185 -1.64914 0
-207.551 -1.66575 0
-205.931 -1.71235 0
-204.292 -1.73656 0
-202.658 -1.77315 0
-201.037 -1.79145 0
-199.402 -1.8224 0
-197.784 -1.86147 0
-196.145 -1.88224 0
-194.52 -1.91853 0
-192.889 -1.94246 0
-191.252 -1.97043 0
-189.62 -1.98656 0
-187.988 -2.00056 0
-186.36 -2.02649 0
-184.728 -2.04894 0
-183.102 -2.06839 0
-181.473 -2.07945 0
-179.845 -2.10134 0
-178.21 -2.12398 0
-176.583 -2.13282 0
-174.955 -2.15979 0
-173.316 -2.1918 0
-171.684 -2.19836 0
-170.064 -2.21805 0
-168.429 -2.2222 0
-166.8 -2.23401 0
-165.167 -2.24627 0
-163.533 -2.25745 0
-161.894 -2.2728 0
-160.265 -2.28573 0
-158.636 -2.29231 0
-157.013 -2.29744 0
-155.382 -2.31503 0
-153.748 -2.31861 0
-152.118 -2.32497 0
-150.481 -2.33468 0
-148.851 -2.33586 0
-147.221 -2.34316 0
-145.597 -2.35122 0
-143.967 -2.34804 0
-142.321 -2.35041 0
-140.688 -2.36113 0
-139.052 -2.36315 0
-137.429 -2.36625 0
-135.8 -2.37257 0
-134.17 -2.37049 0
-132.544 -2.36251 0
-130.912 -2.37301 0
-129.283 -2.37577 0
-127.646 -2.361 0
-126.002 -2.36635 0
-124.377 -2.37524 0
-122.742 -2.35973 0
-121.113 -2.36137 0
-119.484 -2.35764 0
-117.848 -2.35234 0
-116.197 -2.346 0
-114.553 -2.34685 0
-112.915 -2.33619 0
-111.297 -2.33484 0
-109.665 -2.31774 0
-108.03 -2.32005 0
-106.392 -2.31774 0
-104.762 -2.30833 0
-103.141 -2.31091 0
-101.507 -2.29215 0
-99.8593 -2.2844 0
-98.2211 -2.26471 0
-96.5877 -2.26543 0
-94.9577 -2.28556 0
-93.3364 -2.26495 0
-91.7012 -2.2617 0
-90.0677 -2.24827 0
-88.4293 -2.24072 0
-86.7876 -2.23142 0
-85.1534 -2.23365 0
-83.5086 -2.22436 0
-81.8802 -2.21021 0
-80.2415 -2.20694 0
-78.6081 -2.192 0
-76.9709 -2.18338 0
-75.3447 -2.18039 0
-73.7015 -2.17128 0
-72.0574 -2.1719 0
-70.4145 -2.17594 0
-68.7725 -2.1647 0
-67.1372 -2.15865 0
-65.5101 -2.15011 0
-63.8772 -2.13433 0
-62.2322 -2.12169 0
-60.5965 -2.11284 0
-58.951 -2.10616 0
-57.3235 -2.11486 0
-55.697 -2.10416 0
-54.0537 -2.08614 0
-52.4144 -2.08413 0
-50.776 -2.07303 0
-49.1374 -2.06782 0
-47.497 -2.0607 0
-45.8643 -2.06568 0
-44.2214 -2.04996 0
-42.5871 -2.05317 0
-40.9409 -2.05271 0
-39.3076 -2.05657 0
-37.6707 -2.04956 0
-36.0248 -2.04583 0
-34.3984 -2.0516 0
-32.7698 -2.0187 0
-31.1185 -2.01435 0
-29.4821 -2.01584 0
-27.8369 -2.01431 0
-26.205 -2.00821 0
-24.5797 -2.00305 0
-22.9381 -1.99083 0
-21.2968 -1.99506 0
-19.6631 -1.98786 0
-18.0186 -1.99472 0
-16.3883 -1.9903 0
-14.7496 -1.98155 0
-13.1136 -1.99197 0
-11.4658 -1.99545 0
-9.82137 -1.9797 0
-8.19151 -1.98403 0
-6.54891 -1.99257 0
-4.91964 -1.98933 0
-3.28226 -1.99008 0
-1.63967 -1.99139 0
0 -1.98218 0
-1057.63 580.645 0
-1057.55 563.823 0
-1057.48 547.17 0
-1057.37 530.77 0
-1057.26 514.685 0
-1057.13 498.935 0
-1056.99 483.552 0
-1056.85 468.52 0
-1056.71 453.831 0
-1056.56 439.532 0
-1056.41 425.577 0
-1056.26 411.993 0
-1056.11 398.741 0
-1055.94 385.827 0
-1055.77 373.231 0
-1055.57 360.97 0
-1055.33 349.044 0
-1055.08 337.391 0
-1054.79 326.052 0
-1054.49 314.985 0
-1054.17 304.169 0
-1053.83 293.622 0
-1053.47 283.324 0
-1053.1 273.247 0
-1052.68 263.419 0
-1052.27 253.817 0
-1051.82 244.429 0
-1051.37 235.243 0
-1050.88 226.269 0
-1050.38 217.503 0
-1049.88 208.909 0
-1049.36 200.52 0
-1048.84 192.321 0
-1048.31 184.296 0
-1047.76 176.428 0
-1047.19 168.76 0
-1046.61 161.293 0
-1046.03 153.996 0
-1045.42 146.869 0
-1044.83 139.922 0
-1044.21 133.132 0
-1043.58 126.51 0
-1042.94 120.083 0
-1042.29 113.819 0
-1041.65 107.725 0
-1040.99 101.794 0
-1040.29 95.9934 0
-1039.6 90.3823 0
-1038.89 84.9386 0
-1038.18 79.6095 0
-1037.43 74.4414 0
-1036.65 69.4277 0
-1035.87 64.5859 0
-1035.08 59.9049 0
-1034.28 55.3398 0
-1033.46 50.8951 0
-1032.62 46.6009 0
-1031.77 42.4633 0
-1030.9 38.4417 0
-1030.02 34.5425 0
-1029.11 30.7812 0
-1028.21 27.1194 0
-1027.29 23.5857 0
-1026.34 20.1669 0
-1025.36 16.8973 0
-1024.38 13.6692 0
-1023.4 10.5739 0
-1022.41 7.60351 0
-1021.4 4.75345 0
-1020.36 2.00696 0
-1019.31 -0.664506 0
-1018.27 -3.22615 0
-1017.19 -5.6614 0
-1016.11 -8.04071 0
-1015 -10.3342 0
-1013.9 -12.5398 0
-1012.78 -14.6413 0
-1011.64 -16.6286 0
-1010.49 -18.5588 0
-1009.31 -20.4088 0
-1008.12 -22.2067 0
-1006.94 -23.8904 0
-1005.76 -25.4765 0
-1004.57 -27.0425 0
-1003.35 -28.533 0
-1002.1 -29.9555 0
-1000.85 -31.3059 0
-999.571 -32.5924 0
-998.287 -33.7718 0
-997.016 -34.9459 0
-995.732 -36.0543 0
-994.416 -37.0758 0
-993.11 -38.0353 0
-991.8 -38.976 0
-990.458 -39.8515 0
-989.111 -40.6574 0
-987.761 -41.4171 0
-986.402 -42.1238 0
-985.008 -42.8177 0
-983.638 -43.4412 0
-982.244 -44.0034 0
-980.838 -44.5434 0
-979.437 -45.065 0
-978.003 -45.5252 0
-976.57 -45.944 0
-975.133 -46.3184 0
-973.69 -46.6472 0
-972.253 -46.9796 0
-970.795 -47.2619 0
-969.337 -47.511 0
-967.877 -47.7014 0
-966.401 -47.8895 0
-964.923 -48.0356 0
-963.43 -48.1497 0
-961.929 -48.2301 0
-960.416 -48.2963 0
-958.912 -48.3212 0
-957.396 -48.3423 0
-955.873 -48.3408 0
-954.344 -48.312 0
-952.813 -48.2672 0
-951.274 -48.1819 0
-949.724 -48.0937 0
-948.177 -47.9981 0
-946.609 -47.878 0
-945.03 -47.7236 0
-943.472 -47.5576 0
-941.897 -47.3789 0
-940.312 -47.1838 0
-938.725 -46.9712 0
-937.12 -46.7448 0
-935.519 -46.5102 0
-933.941 -46.2548 0
-932.337 -45.9972 0
-930.71 -45.7274 0
-929.103 -45.4439 0
-927.474 -45.1339 0
-925.854 -44.856 0
-924.226 -44.5079 0
-922.59 -44.1987 0
-920.956 -43.8691 0
-919.317 -43.5629 0
-917.671 -43.2062 0
-916.038 -42.8575 0
-914.413 -42.5326 0
-912.753 -42.1653 0
-911.104 -41.7953 0
-909.45 -41.4378 0
-907.786 -41.0837 0
-906.126 -40.7091 0
-904.487 -40.3265 0
-902.838 -39.9813 0
-901.174 -39.5903 0
-899.523 -39.2128 0
-897.86 -38.8467 0
-896.197 -38.4508 0
-894.53 -38.0501 0
-892.857 -37.651 0
-891.172 -37.2582 0
-889.502 -36.8807 0
-887.825 -36.4844 0
-886.142 -36.099 0
-884.479 -35.7255 0
-882.802 -35.3348 0
-881.121 -34.9454 0
-879.439 -34.5613 0
-877.776 -34.1513 0
-876.1 -33.807 0
-874.42 -33.418 0
-872.714 -33.0317 0
-871.054 -32.664 0
-869.375 -32.2882 0
-867.682 -31.9142 0
-865.995 -31.5514 0
-864.302 -31.188 0
-862.623 -30.8329 0
-860.939 -30.4881 0
-859.243 -30.1573 0
-857.571 -29.7796 0
-855.899 -29.4723 0
-854.21 -29.1306 0
-852.512 -28.8029 0
-850.815 -28.4781 0
-849.116 -28.1334 0
-847.421 -27.8165 0
-845.736 -27.4928 0
-844.06 -27.1646 0
-842.378 -26.8402 0
-840.69 -26.5206 0
-839.025 -26.2326 0
-837.328 -25.9014 0
-835.644 -25.6207 0
-833.968 -25.333 0
-832.293 -25.0258 0
-830.601 -24.7409 0
-828.936 -24.4878 0
-827.256 -24.2111 0
-825.575 -23.9667 0
-823.895 -23.6746 0
-822.222 -23.4316 0
-820.534 -23.1711 0
-818.862 -22.9152 0
-817.193 -22.6609 0
-815.531 -22.4086 0
-813.857 -22.1668 0
-812.187 -21.9333 0
-810.509 -21.7008 0
-808.861 -21.456 0
-807.176 -21.2282 0
-805.496 -20.9807 0
-803.827 -20.7515 0
-802.166 -20.5516 0
-800.471 -20.3369 0
-798.819 -20.1236 0
-797.136 -19.9115 0
-795.474 -19.7032 0
-793.816 -19.508 0
-792.147 -19.3005 0
-790.483 -19.1166 0
-788.828 -18.9093 0
-787.164 -18.7083 0
-785.487 -18.5032 0
-783.804 -18.3089 0
-782.142 -18.1272 0
-780.479 -17.9605 0
-778.816 -17.7606 0
-777.164 -17.5824 0
-775.509 -17.4086 0
-773.826 -17.2087 0
-772.164 -17.045 0
-770.511 -16.8864 0
-768.848 -16.7225 0
-767.197 -16.5483 0
-765.53 -16.3949 0
-763.866 -16.2454 0
-762.22 -16.0884 0
-760.553 -15.9241 0
-758.908 -15.7518 0
-757.252 -15.6127 0
-755.587 -15.4567 0
-753.946 -15.3199 0
-752.294 -15.1648 0
-750.65 -14.9992 0
-748.999 -14.8241 0
-747.351 -14.6926 0
-745.704 -14.5532 0
-744.056 -14.423 0
-742.429 -14.2792 0
-740.796 -14.1471 0
-739.152 -13.999 0
-737.511 -13.8473 0
-735.867 -13.7232 0
-734.218 -13.57 0
-732.588 -13.433 0
-730.944 -13.2914 0
-729.307 -13.1619 0
-727.667 -13.0055 0
-726.031 -12.8885 0
-724.401 -12.773 0
-722.764 -12.6455 0
-721.121 -12.5052 0
-719.483 -12.3574 0
-717.855 -12.216 0
-716.201 -12.0836 0
-714.565 -11.963 0
-712.932 -11.836 0
-711.298 -11.7258 0
-709.643 -11.6052 0
-707.997 -11.4723 0
-706.363 -11.3427 0
-704.719 -11.2093 0
-703.091 -11.0853 0
-701.461 -10.9507 0
-699.82 -10.8186 0
-698.175 -10.7059 0
-696.543 -10.5664 0
-694.905 -10.4381 0
-693.269 -10.302 0
-691.637 -10.1861 0
-689.988 -10.0595 0
-688.367 -9.92294 0
-686.735 -9.79923 0
-685.105 -9.66662 0
-683.472 -9.53275 0
-681.841 -9.40378 0
-680.223 -9.28022 0
-678.589 -9.15606 0
-676.964 -9.01927 0
-675.342 -8.8954 0
-673.724 -8.76862 0
-672.089 -8.64245 0
-670.46 -8.50511 0
-668.83 -8.37 0
-667.208 -8.24132 0
-665.578 -8.11458 0
-663.938 -7.99116 0
-662.316 -7.84922 0
-660.691 -7.71262 0
-659.071 -7.5785 0
-657.458 -7.45073 0
-655.833 -7.29439 0
-654.203 -7.16125 0
-652.575 -7.02894 0
-650.953 -6.88452 0
-649.321 -6.74559 0
-647.693 -6.59499 0
-646.066 -6.46088 0
-644.442 -6.31354 0
-642.807 -6.18059 0
-641.18 -6.04371 0
-639.553 -5.90383 0
-637.92 -5.76783 0
-636.299 -5.623 0
-634.673 -5.47285 0
-633.041 -5.33338 0
-631.408 -5.20082 0
-629.777 -5.04406 0
-628.149 -4.90559 0
-626.512 -4.74468 0
-624.888 -4.59565 0
-623.247 -4.46302 0
-621.619 -4.31995 0
-619.99 -4.17354 0
-618.366 -4.03294 0
-616.737 -3.89121 0
-615.109 -3.74548 0
-613.485 -3.6095 0
-611.856 -3.46398 0
-610.22 -3.31464 0
-608.589 -3.16918 0
-606.95 -3.02442 0
-605.318 -2.88108 0
-603.692 -2.74363 0
-602.054 -2.59738 0
-600.425 -2.45096 0
-598.788 -2.30678 0
-597.149 -2.16942 0
-595.522 -2.01942 0
-593.888 -1.88145 0
-592.253 -1.7366 0
-590.621 -1.59299 0
-588.993 -1.44807 0
-587.357 -1.31613 0
-585.72 -1.17549 0
-584.089 -1.03662 0
-582.454 -0.894246 0
-580.818 -0.748554 0
-579.186 -0.604746 0
-577.554 -0.464872 0
-575.918 -0.329533 0
-574.282 -0.186978 0
-572.65 -0.053998 0
-571.006 0.0819601 0
-569.372 0.217266 0
-567.736 0.346001 0
-566.093 0.471581 0
-564.459 0.599063 0
-562.82 0.732614 0
-561.18 0.864574 0
-559.544 0.993386 0
-557.908 1.12366 0
-556.271 1.2468 0
-554.633 1.37539 0
-552.992 1.49219 0
-551.359 1.61742 0
-549.719 1.738 0
-548.079 1.86314 0
-546.444 1.97791 0
-544.801 2.09446 0
-543.161 2.20656 0
-541.519 2.33016 0
-539.879 2.44448 0
-538.236 2.55939 0
-536.598 2.68034 0
-534.959 2.79203 0
-533.32 2.90254 0
-531.677 3.02527 0
-530.035 3.13145 0
-528.392 3.23366 0
-526.747 3.33814 0
-525.102 3.43755 0
-523.456 3.54148 0
-521.816 3.64266 0
-520.169 3.74421 0
-518.521 3.84661 0
-516.882 3.94681 0
-515.235 4.04107 0
-513.592 4.13554 0
-511.944 4.22425 0
-510.297 4.31135 0
-508.657 4.40466 0
-507.013 4.4885 0
-505.365 4.57845 0
-503.718 4.66048 0
-502.069 4.74549 0
-500.415 4.82868 0
-498.769 4.91034 0
-497.128 4.99007 0
-495.481 5.07472 0
-493.832 5.14817 0
-492.187 5.22367 0
-490.535 5.30113 0
-488.883 5.3689 0
-487.235 5.44192 0
-485.586 5.50774 0
-483.941 5.57788 0
-482.284 5.64621 0
-480.634 5.70548 0
-478.989 5.76941 0
-477.328 5.82619 0
-475.676 5.88856 0
-474.021 5.94387 0
-472.366 5.99533 0
-470.711 6.05034 0
-469.068 6.09712 0
-467.417 6.14678 0
-465.769 6.19685 0
-464.118 6.23767 0
-462.466 6.28185 0
-460.81 6.32503 0
-459.159 6.36712 0
-457.507 6.39938 0
-455.851 6.43213 0
-454.195 6.46994 0
-452.54 6.5028 0
-450.897 6.52465 0
-449.242 6.54855 0
-447.588 6.57604 0
-445.941 6.59827 0
-444.286 6.61874 0
-442.626 6.63724 0
-440.973 6.65459 0
-439.316 6.67905 0
-437.666 6.69508 0
-436.015 6.71232 0
-434.365 6.72331 0
-432.703 6.73415 0
-431.049 6.73567 0
-429.396 6.7406 0
-427.737 6.75326 0
-426.084 6.75622 0
-424.43 6.75794 0
-422.771 6.76266 0
-421.121 6.75304 0
-419.465 6.75883 0
-417.811 6.75039 0
-416.162 6.7414 0
-414.511 6.72981 0
-412.86 6.71693 0
-411.199 6.70056 0
-409.543 6.68921 0
-407.886 6.66938 0
-406.229 6.65016 0
-404.575 6.63217 0
-402.917 6.60837 0
-401.269 6.5845 0
-399.613 6.56242 0
-397.958 6.53288 0
-396.305 6.50492 0
-394.652 6.47843 0
-392.996 6.44985 0
-391.347 6.41181 0
-389.698 6.38499 0
-388.043 6.34529 0
-386.389 6.31815 0
-384.736 6.28087 0
-383.084 6.24207 0
-381.425 6.19976 0
-379.772 6.1542 0
-378.122 6.11771 0
-376.466 6.06876 0
-374.818 6.02454 0
-373.165 5.97085 0
-371.515 5.92571 0
-369.861 5.88263 0
-368.216 5.83439 0
-366.564 5.78642 0
-364.915 5.73201 0
-363.265 5.67443 0
-361.618 5.61078 0
-359.974 5.56627 0
-358.321 5.50362 0
-356.664 5.44485 0
-355.018 5.38432 0
-353.374 5.31454 0
-351.719 5.25595 0
-350.064 5.189 0
-348.419 5.12643 0
-346.772 5.07218 0
-345.123 5.00807 0
-343.476 4.94336 0
-341.825 4.87545 0
-340.179 4.80439 0
-338.533 4.73632 0
-336.884 4.67743 0
-335.242 4.60202 0
-333.593 4.5384 0
-331.947 4.46776 0
-330.304 4.39445 0
-328.658 4.32602 0
-327.018 4.25754 0
-325.372 4.18799 0
-323.725 4.11531 0
-322.077 4.05355 0
-320.438 3.97463 0
-318.793 3.90225 0
-317.152 3.83351 0
-315.498 3.7596 0
-313.85 3.68847 0
-312.215 3.61625 0
-310.57 3.54367 0
-308.924 3.46938 0
-307.283 3.40907 0
-305.641 3.32419 0
-304.007 3.25776 0
-302.361 3.18599 0
-300.721 3.12128 0
-299.081 3.04437 0
-297.44 2.96766 0
-295.801 2.90239 0
-294.162 2.82566 0
-292.522 2.76212 0
-290.878 2.69659 0
-289.244 2.62496 0
-287.61 2.54654 0
-285.973 2.48629 0
-284.342 2.41713 0
-282.705 2.34761 0
-281.066 2.27997 0
-279.426 2.21591 0
-277.79 2.14987 0
-276.148 2.08178 0
-274.507 2.01462 0
-272.875 1.96009 0
-271.243 1.89693 0
-269.6 1.83006 0
-267.96 1.76417 0
-266.33 1.7042 0
-264.691 1.63918 0
-263.062 1.57769 0
-261.425 1.51386 0
-259.796 1.45066 0
-258.162 1.38979 0
-256.532 1.33431 0
-254.894 1.27492 0
-253.252 1.22311 0
-251.63 1.16865 0
-249.991 1.11095 0
-248.353 1.05042 0
-246.729 0.999421 0
-245.088 0.941456 0
-243.458 0.889272 0
-241.818 0.841391 0
-240.193 0.786596 0
-238.56 0.735722 0
-236.93 0.692334 0
-235.3 0.645402 0
-233.672 0.590386 0
-232.047 0.540226 0
-230.416 0.49302 0
-228.781 0.448207 0
-227.155 0.411362 0
-225.523 0.369905 0
-223.886 0.325174 0
-222.258 0.279854 0
-220.626 0.242391 0
-218.995 0.197007 0
-217.37 0.156593 0
-215.743 0.113791 0
-214.108 0.080202 0
-212.484 0.0462837 0
-210.852 0.00549959 0
-209.22 -0.0221067 0
-207.584 -0.0563551 0
-205.958 -0.0857512 0
-204.331 -0.115621 0
-202.692 -0.148845 0
-201.069 -0.182481 0
-199.444 -0.204462 0
-197.809 -0.232444 0
-196.174 -0.261862 0
-194.545 -0.299198 0
-192.912 -0.318463 0
-191.28 -0.345503 0
-189.642 -0.364446 0
-188.009 -0.375973 0
-186.377 -0.409207 0
-184.749 -0.433554 0
-183.119 -0.450907 0
-181.487 -0.455753 0
-179.859 -0.481928 0
-178.239 -0.499243 0
-176.605 -0.51687 0
-174.971 -0.536734 0
-173.334 -0.568621 0
-171.704 -0.573687 0
-170.077 -0.59013 0
-168.438 -0.609412 0
-166.815 -0.618294 0
-165.18 -0.625961 0
-163.553 -0.637643 0
-161.914 -0.651772 0
-160.285 -0.660862 0
-158.657 -0.675762 0
-157.021 -0.682752 0
-155.387 -0.690577 0
-153.755 -0.697078 0
-152.121 -0.698775 0
-150.494 -0.70958 0
-148.861 -0.708961 0
-147.235 -0.716343 0
-145.598 -0.725956 0
-143.963 -0.726488 0
-142.327 -0.732058 0
-140.697 -0.733071 0
-139.065 -0.745834 0
-137.435 -0.744708 0
-135.802 -0.749169 0
-134.172 -0.753933 0
-132.539 -0.749086 0
-130.904 -0.746637 0
-129.273 -0.752998 0
-127.642 -0.73931 0
-126.001 -0.740433 0
-124.367 -0.748348 0
-122.738 -0.737629 0
-121.108 -0.736906 0
-119.47 -0.728194 0
-117.837 -0.735716 0
-116.197 -0.717356 0
-114.567 -0.724645 0
-112.93 -0.716318 0
-111.292 -0.705203 0
-109.655 -0.71015 0
-108.025 -0.701073 0
-106.389 -0.692364 0
-104.764 -0.689488 0
-103.118 -0.682395 0
-101.486 -0.660933 0
-99.8577 -0.653949 0
-98.2219 -0.640908 0
-96.5974 -0.645281 0
-94.9577 -0.653824 0
-93.3201 -0.641436 0
-91.6948 -0.637429 0
-90.053 -0.624845 0
-88.4231 -0.610536 0
-86.7849 -0.608331 0
-85.1496 -0.59621 0
-83.5109 -0.592442 0
-81.8625 -0.590755 0
-80.229 -0.579291 0
-78.5937 -0.570115 0
-76.9577 -0.558196 0
-75.3237 -0.553369 0
-73.6908 -0.546333 0
-72.0526 -0.542619 0
-70.4038 -0.541828 0
-68.7706 -0.536475 0
-67.1338 -0.533972 0
-65.5 -0.525726 0
-63.8639 -0.50778 0
-62.2255 -0.500281 0
-60.5885 -0.484159 0
-58.9615 -0.484525 0
-57.3294 -0.489806 0
-55.687 -0.474758 0
-54.0489 -0.462578 0
-52.4074 -0.459411 0
-50.7659 -0.447733 0
-49.1292 -0.43697 0
-47.5003 -0.430784 0
-45.8544 -0.441707 0
-44.2199 -0.430715 0
-42.58 -0.421989 0
-40.9414 -0.429963 0
-39.3001 -0.435242 0
-37.6663 -0.426569 0
-36.0289 -0.417492 0
-34.3879 -0.412801 0
-32.7473 -0.397245 0
-31.1157 -0.383361 0
-29.4706 -0.392189 0
-27.839 -0.389895 0
-26.1899 -0.388214 0
-24.5536 -0.378328 0
-22.9253 -0.371612 0
-21.2933 -0.365783 0
-19.6514 -0.370089 0
-18.0187 -0.371951 0
-16.3802 -0.368609 0
-14.7473 -0.360771 0
-13.1068 -0.357246 0
-11.4679 -0.357303 0
-9.82702 -0.357885 0
-8.1935 -0.353334 0
-6.55478 -0.358552 0
-4.91264 -0.365189 0
-3.27881 -0.359788 0
-1.64363 -0.356491 0
0 -0.355785 0
-1074.66 581.009 0
-1074.27 564.055 0
-1073.95 547.413 0
-1073.58 531.049 0
-1073.17 514.989 0
-1072.7 499.268 0
-1072.23 483.886 0
-1071.76 468.851 0
-1071.27 454.17 0
-1070.78 439.86 0
-1070.29 425.921 0
-1069.78 412.326 0
-1069.28 399.084 0
-1068.78 386.181 0
-1068.28 373.608 0
-1067.74 361.361 0
-1067.2 349.448 0
-1066.64 337.825 0
-1066.07 326.493 0
-1065.49 315.433 0
-1064.9 304.642 0
-1064.31 294.112 0
-1063.7 283.814 0
-1063.09 273.768 0
-1062.46 263.962 0
-1061.8 254.366 0
-1061.13 244.99 0
-1060.47 235.832 0
-1059.78 226.87 0
-1059.08 218.099 0
-1058.38 209.517 0
-1057.68 201.127 0
-1056.95 192.936 0
-1056.24 184.917 0
-1055.5 177.084 0
-1054.75 169.427 0
-1053.99 161.947 0
-1053.23 154.67 0
-1052.47 147.542 0
-1051.71 140.604 0
-1050.94 133.82 0
-1050.13 127.226 0
-1049.31 120.809 0
-1048.51 114.537 0
-1047.7 108.458 0
-1046.86 102.532 0
-1046 96.7542 0
-1045.15 91.1528 0
-1044.29 85.7136 0
-1043.41 80.4024 0
-1042.51 75.256 0
-1041.6 70.2589 0
-1040.65 65.4137 0
-1039.73 60.7383 0
-1038.79 56.1949 0
-1037.84 51.7795 0
-1036.86 47.4955 0
-1035.88 43.3599 0
-1034.9 39.3534 0
-1033.88 35.4585 0
-1032.86 31.7128 0
-1031.82 28.0696 0
-1030.76 24.5442 0
-1029.69 21.1551 0
-1028.63 17.8695 0
-1027.55 14.6703 0
-1026.47 11.5776 0
-1025.32 8.63607 0
-1024.22 5.79056 0
-1023.09 3.04889 0
-1021.95 0.392444 0
-1020.78 -2.13965 0
-1019.63 -4.5747 0
-1018.44 -6.93513 0
-1017.26 -9.23501 0
-1016.07 -11.4095 0
-1014.85 -13.5036 0
-1013.64 -15.4958 0
-1012.39 -17.3821 0
-1011.13 -19.235 0
-1009.88 -21.0541 0
-1008.62 -22.717 0
-1007.37 -24.3153 0
-1006.1 -25.8517 0
-1004.81 -27.3178 0
-1003.51 -28.7227 0
-1002.2 -30.056 0
-1000.85 -31.3295 0
-999.502 -32.5274 0
-998.169 -33.6799 0
-996.809 -34.7607 0
-995.443 -35.7707 0
-994.093 -36.7384 0
-992.713 -37.6608 0
-991.333 -38.5322 0
-989.931 -39.326 0
-988.528 -40.0766 0
-987.115 -40.7829 0
-985.695 -41.4581 0
-984.266 -42.072 0
-982.835 -42.6204 0
-981.387 -43.149 0
-979.946 -43.665 0
-978.477 -44.122 0
-977.005 -44.5331 0
-975.538 -44.9049 0
-974.055 -45.2365 0
-972.562 -45.5443 0
-971.087 -45.8329 0
-969.587 -46.0624 0
-968.079 -46.2701 0
-966.58 -46.4324 0
-965.07 -46.5815 0
-963.554 -46.6901 0
-962.031 -46.762 0
-960.5 -46.8045 0
-958.966 -46.8257 0