<?xml version="1.0"?>
<VTKFile type="StructuredGrid"  version="0.1" byte_order="LittleEndian" compressor="vtkZLibDataCompressor">
  <StructuredGrid WholeExtent="0 700 0 30 0 0">
    <Piece Extent="0 700 0 30 0 0">
      <PointData Vectors="Velocity">
        <DataArray type="Float32" Name="Velocity" NumberOfComponents="3" format="ascii">
-1088.62 58.0106 0
-1088.82 51.4354 0
-1089.09 45.0448 0
-1089.4 38.961 0
-1089.69 33.2186 0
-1089.9 27.7378 0
-1090.11 22.4589 0
-1090.37 17.4629 0
-1090.64 12.8364 0
-1090.89 8.59993 0
-1091.1 4.74728 0
-1091.29 1.26871 0
-1091.43 -1.84923 0
-1091.51 -4.624 0
-1091.54 -7.07629 0
-1091.51 -9.23084 0
-1091.39 -11.1106 0
-1091.21 -12.7391 0
-1090.95 -14.1403 0
-1090.61 -15.3347 0
-1090.21 -16.3419 0
-1089.73 -17.1804 0
-1089.18 -17.8662 0
-1088.58 -18.4158 0
-1087.91 -18.8409 0
-1087.19 -19.1552 0
-1086.42 -19.3691 0
-1085.6 -19.4919 0
-1084.73 -19.5332 0
-1083.82 -19.5001 0
-1082.87 -19.3999 0
-1081.88 -19.239 0
-1080.86 -19.0231 0
-1079.8 -18.7573 0
-1078.7 -18.4461 0
-1077.57 -18.094 0
-1076.42 -17.7053 0
-1075.23 -17.2835 0
-1074.01 -16.8328 0
-1072.76 -16.356 0
-1071.49 -15.857 0
-1070.18 -15.3379 0
-1068.85 -14.8024 0
-1067.5 -14.2535 0
-1066.12 -13.6941 0
-1064.71 -13.1262 0
-1063.28 -12.5524 0
-1061.83 -11.9752 0
-1060.36 -11.3971 0
-1058.87 -10.8203 0
-1057.36 -10.2466 0
-1055.82 -9.67727 0
-1054.27 -9.11448 0
-1052.71 -8.55983 0
-1051.12 -8.01529 0
-1049.53 -7.48211 0
-1047.91 -6.96109 0
-1046.29 -6.45341 0
-1044.65 -5.9603 0
-1043 -5.48207 0
-1041.34 -5.02037 0
-1039.67 -4.57602 0
-1037.98 -4.14876 0
-1036.29 -3.7399 0
-1034.6 -3.34955 0
-1032.89 -2.97819 0
-1031.18 -2.62662 0
-1029.46 -2.29474 0
-1027.74 -1.9828 0
-1026.01 -1.68955 0
-1024.28 -1.41686 0
-1022.55 -1.163 0
-1020.81 -0.929118 0
-1019.07 -0.715868 0
-1017.33 -0.521005 0
-1015.59 -0.345242 0
-1013.84 -0.188418 0
-1012.1 -0.0504909 0
-1010.36 0.069452 0
-1008.61 0.171878 0
-1006.87 0.256172 0
-1005.13 0.324415 0
-1003.39 0.375926 0
-1001.65 0.411497 0
-999.916 0.431592 0
-998.182 0.437179 0
-996.452 0.428099 0
-994.724 0.405715 0
-992.999 0.370093 0
-991.277 0.321824 0
-989.558 0.262159 0
-987.844 0.190983 0
-986.133 0.108671 0
-984.425 0.0169676 0
-982.721 -0.0846133 0
-981.022 -0.195027 0
-979.326 -0.313805 0
-977.635 -0.439987 0
-975.947 -0.573037 0
-974.263 -0.712686 0
-972.584 -0.858159 0
-970.909 -1.00885 0
-969.238 -1.16408 0
-967.571 -1.32316 0
-965.908 -1.48495 0
-964.249 -1.65091 0
-962.594 -1.81865 0
-960.942 -1.98874 0
-959.294 -2.16029 0
-957.65 -2.33255 0
-956.009 -2.5055 0
-954.373 -2.6781 0
-952.739 -2.85071 0
-951.108 -3.02216 0
-949.481 -3.19262 0
-947.858 -3.36094 0
-946.237 -3.5277 0
-944.619 -3.69207 0
-943.004 -3.8536 0
-941.391 -4.01215 0
-939.781 -4.16797 0
-938.173 -4.32014 0
-936.567 -4.46795 0
-934.963 -4.61246 0
-933.361 -4.75246 0
-931.761 -4.88851 0
-930.163 -5.02017 0
-928.566 -5.14699 0
-926.971 -5.26887 0
-925.377 -5.38469 0
-923.783 -5.49764 0
-922.192 -5.60411 0
-920.6 -5.70605 0
-919.011 -5.80242 0
-917.421 -5.89297 0
-915.833 -5.97845 0
-914.245 -6.05849 0
-912.658 -6.1334 0
-911.07 -6.20278 0
-909.482 -6.26808 0
-907.896 -6.32668 0
-906.309 -6.38065 0
-904.723 -6.42947 0
-903.136 -6.47246 0
-901.548 -6.51119 0
-899.96 -6.54517 0
-898.372 -6.57306 0
-896.783 -6.59648 0
-895.195 -6.6162 0
-893.606 -6.63085 0
-892.015 -6.64038 0
-890.425 -6.64635 0
-888.834 -6.64829 0
-887.242 -6.64418 0
-885.65 -6.63768 0
-884.055 -6.62769 0
-882.461 -6.6135 0
-880.865 -6.59612 0
-879.268 -6.57485 0
-877.671 -6.5515 0
-876.073 -6.52421 0
-874.474 -6.49417 0
-872.873 -6.46101 0
-871.273 -6.42614 0
-869.67 -6.38835 0
-868.067 -6.34796 0
-866.462 -6.3069 0
-864.856 -6.2621 0
-863.25 -6.21571 0
-861.641 -6.16727 0
-860.032 -6.1184 0
-858.423 -6.06769 0
-856.813 -6.01584 0
-855.2 -5.96307 0
-853.588 -5.90902 0
-851.974 -5.85251 0
-850.359 -5.7972 0
-848.743 -5.74203 0
-847.126 -5.68405 0
-845.508 -5.62826 0
-843.889 -5.57095 0
-842.27 -5.51426 0
-840.649 -5.45792 0
-839.028 -5.40081 0
-837.406 -5.34477 0
-835.783 -5.28734 0
-834.16 -5.23154 0
-832.536 -5.17687 0
-830.911 -5.12192 0
-829.285 -5.06818 0
-827.66 -5.01559 0
-826.032 -4.96252 0
-824.404 -4.91286 0
-822.776 -4.86312 0
-821.147 -4.81287 0
-819.518 -4.76508 0
-817.888 -4.71864 0
-816.257 -4.67356 0
-814.628 -4.62764 0
-812.997 -4.58456 0
-811.366 -4.54367 0
-809.735 -4.50225 0
-808.103 -4.46313 0
-806.469 -4.42535 0
-804.836 -4.38917 0
-803.203 -4.357 0
-801.57 -4.32405 0
-799.937 -4.29342 0
-798.304 -4.26278 0
-796.669 -4.23606 0
-795.036 -4.20913 0
-793.402 -4.18422 0
-791.769 -4.16114 0
-790.135 -4.13916 0
-788.5 -4.11939 0
-786.867 -4.10018 0
-785.233 -4.08405 0
-783.599 -4.0681 0
-781.966 -4.05414 0
-780.332 -4.0405 0
-778.698 -4.0297 0
-777.064 -4.02087 0
-775.431 -4.01138 0
-773.798 -4.00543 0
-772.165 -4 0
-770.532 -3.99535 0
-768.899 -3.99425 0
-767.267 -3.99244 0
-765.636 -3.99104 0
-764.003 -3.99175 0
-762.372 -3.99236 0
-760.74 -3.9957 0
-759.11 -3.9991 0
-757.479 -4.00607 0
-755.849 -4.01006 0
-754.219 -4.01792 0
-752.59 -4.0269 0
-750.96 -4.0346 0
-749.329 -4.04363 0
-747.7 -4.05487 0
-746.07 -4.06479 0
-744.443 -4.07659 0
-742.815 -4.08995 0
-741.186 -4.10231 0
-739.558 -4.11612 0
-737.931 -4.12924 0
-736.303 -4.14316 0
-734.676 -4.15853 0
-733.05 -4.17443 0
-731.425 -4.19117 0
-729.798 -4.20589 0
-728.173 -4.22112 0
-726.547 -4.23829 0
-724.922 -4.25618 0
-723.297 -4.27283 0
-721.673 -4.28968 0
-720.048 -4.30824 0
-718.423 -4.32475 0
-716.799 -4.34109 0
-715.175 -4.35978 0
-713.552 -4.37724 0
-711.929 -4.39362 0
-710.306 -4.4124 0
-708.683 -4.42894 0
-707.062 -4.44648 0
-705.439 -4.46463 0
-703.818 -4.48103 0
-702.196 -4.49647 0
-700.575 -4.51321 0
-698.954 -4.52959 0
-697.332 -4.54543 0
-695.71 -4.5604 0
-694.089 -4.57655 0
-692.468 -4.59076 0
-690.849 -4.6052 0
-689.227 -4.62004 0
-687.606 -4.63261 0
-685.986 -4.64762 0
-684.366 -4.66163 0
-682.746 -4.67283 0
-681.126 -4.68595 0
-679.506 -4.69816 0
-677.886 -4.70962 0
-676.267 -4.72104 0
-674.647 -4.73239 0
-673.027 -4.74325 0
-671.408 -4.75413 0
-669.789 -4.76439 0
-668.169 -4.77245 0
-666.549 -4.77987 0
-664.931 -4.78788 0
-663.312 -4.79661 0
-661.693 -4.8016 0
-660.074 -4.81032 0
-658.454 -4.81638 0
-656.835 -4.82244 0
-655.215 -4.82882 0
-653.597 -4.83397 0
-651.978 -4.83812 0
-650.359 -4.84219 0
-648.739 -4.84699 0
-647.12 -4.84976 0
-645.5 -4.85355 0
-643.882 -4.85621 0
-642.262 -4.85685 0
-640.642 -4.86042 0
-639.023 -4.86115 0
-637.404 -4.86159 0
-635.783 -4.86166 0
-634.163 -4.86217 0
-632.543 -4.8632 0
-630.923 -4.86202 0
-629.304 -4.86238 0
-627.683 -4.86099 0
-626.063 -4.86132 0
-624.442 -4.86008 0
-622.822 -4.85459 0
-621.201 -4.85177 0
-619.582 -4.85097 0
-617.961 -4.8472 0
-616.34 -4.84523 0
-614.719 -4.8428 0
-613.098 -4.83883 0
-611.476 -4.83507 0
-609.855 -4.83131 0
-608.234 -4.82612 0
-606.613 -4.82223 0
-604.993 -4.81824 0
-603.372 -4.81485 0
-601.753 -4.80829 0
-600.13 -4.80463 0
-598.507 -4.80039 0
-596.884 -4.79496 0
-595.262 -4.78994 0
-593.642 -4.78546 0
-592.02 -4.78095 0
-590.396 -4.77494 0
-588.775 -4.76913 0
-587.153 -4.76621 0
-585.532 -4.75963 0
-583.91 -4.75295 0
-582.287 -4.74888 0
-580.665 -4.74254 0
-579.043 -4.73656 0
-577.419 -4.7325 0
-575.797 -4.72842 0
-574.175 -4.72144 0
-572.552 -4.71891 0
-570.928 -4.71346 0
-569.307 -4.70896 0
-567.684 -4.70213 0
-566.06 -4.69799 0
-564.437 -4.69426 0
-562.814 -4.68922 0
-561.191 -4.68563 0
-559.568 -4.68071 0
-557.943 -4.67797 0
-556.322 -4.67394 0
-554.699 -4.6686 0
-553.077 -4.66464 0
-551.454 -4.66267 0
-549.83 -4.66032 0
-548.206 -4.65556 0
-546.582 -4.65411 0
-544.958 -4.64877 0
-543.335 -4.64664 0
-541.712 -4.64403 0
-540.088 -4.63973 0
-538.464 -4.63687 0
-536.84 -4.63481 0
-535.218 -4.63332 0
-533.593 -4.63229 0
-531.971 -4.62804 0
-530.347 -4.62647 0
-528.723 -4.62404 0
-527.102 -4.6246 0
-525.477 -4.624 0
-523.852 -4.62353 0
-522.229 -4.62062 0
-520.606 -4.62031 0
-518.984 -4.61864 0
-517.359 -4.61642 0
-515.735 -4.61571 0
-514.112 -4.61764 0
-512.49 -4.61764 0
-510.867 -4.61796 0
-509.243 -4.61806 0
-507.621 -4.61546 0
-505.997 -4.617 0
-504.374 -4.61504 0
-502.749 -4.61709 0
-501.126 -4.61757 0
-499.503 -4.61827 0
-497.879 -4.6207 0
-496.256 -4.62213 0
-494.635 -4.62237 0
-493.011 -4.62218 0
-491.388 -4.62255 0
-489.764 -4.62488 0
-488.142 -4.62705 0
-486.518 -4.62728 0
-484.895 -4.62879 0
-483.273 -4.63134 0
-481.65 -4.63207 0
-480.025 -4.63283 0
-478.401 -4.63701 0
-476.779 -4.63732 0
-475.153 -4.64143 0
-473.53 -4.64513 0
-471.908 -4.64908 0
-470.286 -4.65042 0
-468.664 -4.65367 0
-467.041 -4.654 0
-465.42 -4.65668 0
-463.796 -4.65949 0
-462.174 -4.66208 0
-460.55 -4.66776 0
-458.926 -4.66768 0
-457.306 -4.67121 0
-455.684 -4.67322 0
-454.062 -4.67465 0
-452.439 -4.67782 0
-450.817 -4.68191 0
-449.19 -4.6843 0
-447.568 -4.68757 0
-445.947 -4.69061 0
-444.325 -4.6923 0
-442.703 -4.6975 0
-441.082 -4.69984 0
-439.457 -4.70356 0
-437.835 -4.70603 0
-436.214 -4.70979 0
-434.593 -4.71207 0
-432.971 -4.71421 0
-431.349 -4.71871 0
-429.729 -4.72129 0
-428.103 -4.72375 0
-426.481 -4.72725 0
-424.86 -4.72889 0
-423.238 -4.7336 0
-421.617 -4.73354 0
-419.995 -4.73809 0
-418.376 -4.73917 0
-416.749 -4.74278 0
-415.127 -4.74559 0
-413.504 -4.74663 0
-411.883 -4.75031 0
-410.26 -4.75278 0
-408.639 -4.75402 0
-407.017 -4.75668 0
-405.395 -4.76113 0
-403.775 -4.76216 0
-402.154 -4.7646 0
-400.531 -4.76815 0
-398.909 -4.76976 0
-397.288 -4.77397 0
-395.668 -4.77331 0
-394.047 -4.77515 0
-392.426 -4.77736 0
-390.8 -4.77869 0
-389.18 -4.78243 0
-387.558 -4.78304 0
-385.939 -4.78466 0
-384.316 -4.785 0
-382.696 -4.78711 0
-381.072 -4.79056 0
-379.451 -4.79202 0
-377.83 -4.78898 0
-376.208 -4.79273 0
-374.585 -4.79432 0
-372.962 -4.79336 0
-371.339 -4.7952 0
-369.718 -4.79507 0
-368.098 -4.79764 0
-366.476 -4.79757 0
-364.856 -4.79829 0
-363.233 -4.80163 0
-361.614 -4.80423 0
-359.989 -4.80344 0
-358.372 -4.80605 0
-356.75 -4.80528 0
-355.128 -4.80415 0
-353.504 -4.80651 0
-351.884 -4.80481 0
-350.262 -4.80749 0
-348.641 -4.80614 0
-347.017 -4.81008 0
-345.394 -4.80957 0
-343.771 -4.81193 0
-342.148 -4.81363 0
-340.529 -4.81273 0
-338.905 -4.81272 0
-337.283 -4.81187 0
-335.663 -4.81441 0
-334.043 -4.81428 0
-332.421 -4.8131 0
-330.799 -4.81328 0
-329.175 -4.81307 0
-327.554 -4.81491 0
-325.932 -4.81515 0
-324.311 -4.8147 0
-322.688 -4.81532 0
-321.067 -4.81415 0
-319.443 -4.81352 0
-317.82 -4.81394 0
-316.201 -4.81463 0
-314.58 -4.81315 0
-312.958 -4.81505 0
-311.336 -4.814 0
-309.714 -4.8157 0
-308.091 -4.81328 0
-306.472 -4.81405 0
-304.85 -4.81317 0
-303.228 -4.81413 0
-301.606 -4.81404 0
-299.985 -4.81432 0
-298.363 -4.81107 0
-296.74 -4.81197 0
-295.12 -4.81287 0
-293.497 -4.81275 0
-291.874 -4.81443 0
-290.253 -4.81337 0
-288.631 -4.81227 0
-287.011 -4.80979 0
-285.387 -4.80876 0
-283.766 -4.81121 0
-282.146 -4.80955 0
-280.523 -4.80922 0
-278.902 -4.81169 0
-277.277 -4.81016 0
-275.654 -4.81087 0
-274.033 -4.81034 0
-272.411 -4.81092 0
-270.788 -4.81238 0
-269.168 -4.81289 0
-267.545 -4.81011 0
-265.921 -4.80804 0
-264.3 -4.80745 0
-262.68 -4.80797 0
-261.059 -4.81064 0
-259.436 -4.81121 0
-257.814 -4.81145 0
-256.194 -4.80991 0
-254.573 -4.81021 0
-252.949 -4.8106 0
-251.328 -4.81058 0
-249.707 -4.80633 0
-248.084 -4.80882 0
-246.464 -4.8052 0
-244.844 -4.80588 0
-243.221 -4.80676 0
-241.598 -4.80925 0
-239.976 -4.81086 0
-238.354 -4.8104 0
-236.734 -4.8083 0
-235.112 -4.80882 0
-233.49 -4.80758 0
-231.866 -4.81063 0
-230.245 -4.80799 0
-228.623 -4.80589 0
-227.001 -4.80609 0
-225.38 -4.80719 0
-223.759 -4.80777 0
-222.136 -4.80566 0
-220.514 -4.80528 0
-218.892 -4.80581 0
-217.27 -4.80695 0
-215.646 -4.80441 0
-214.027 -4.80647 0
-212.406 -4.80538 0
-210.784 -4.80526 0
-209.163 -4.80642 0
-207.539 -4.8077 0
-205.918 -4.80893 0
-204.295 -4.80865 0
-202.676 -4.80891 0
-201.053 -4.80562 0
-199.43 -4.80651 0
-197.809 -4.80964 0
-196.188 -4.81036 0
-194.568 -4.80845 0
-192.946 -4.80654 0
-191.325 -4.80756 0
-189.702 -4.80539 0
-188.08 -4.80941 0
-186.457 -4.80799 0
-184.836 -4.80936 0
-183.215 -4.80704 0
-181.594 -4.80852 0
-179.973 -4.80617 0
-178.351 -4.80797 0
-176.728 -4.80864 0
-175.106 -4.80807 0
-173.484 -4.8115 0
-171.864 -4.81073 0
-170.243 -4.80996 0
-168.622 -4.81173 0
-167.001 -4.81083 0
-165.38 -4.80919 0
-163.758 -4.81107 0
-162.137 -4.80952 0
-160.517 -4.80839 0
-158.896 -4.80843 0
-157.272 -4.81004 0
-155.65 -4.80819 0
-154.027 -4.80625 0
-152.406 -4.80652 0
-150.785 -4.80816 0
-149.165 -4.81057 0
-147.543 -4.80934 0
-145.923 -4.80789 0
-144.3 -4.80975 0
-142.678 -4.8097 0
-141.055 -4.8092 0
-139.433 -4.81267 0
-137.813 -4.81196 0
-136.192 -4.81094 0
-134.571 -4.81206 0
-132.95 -4.81275 0
-131.327 -4.80956 0
-129.706 -4.81164 0
-128.085 -4.81046 0
-126.463 -4.81123 0
-124.841 -4.81126 0
-123.219 -4.81053 0
-121.599 -4.81217 0
-119.978 -4.81367 0
-118.355 -4.81244 0
-116.733 -4.81281 0
-115.111 -4.81314 0
-113.491 -4.8111 0
-111.872 -4.8121 0
-110.249 -4.81244 0
-108.626 -4.81257 0
-107.006 -4.81157 0
-105.384 -4.81158 0
-103.763 -4.8107 0
-102.141 -4.81205 0
-100.519 -4.81116 0
-98.898 -4.81363 0
-97.2779 -4.81387 0
-95.6581 -4.81583 0
-94.0368 -4.81486 0
-92.4164 -4.81383 0
-90.7938 -4.81195 0
-89.1718 -4.81201 0
-87.5503 -4.81296 0
-85.9291 -4.8125 0
-84.3073 -4.81461 0
-82.686 -4.81496 0
-81.0671 -4.81627 0
-79.4459 -4.81484 0
-77.825 -4.81529 0
-76.2028 -4.81541 0
-74.581 -4.81488 0
-72.9598 -4.81319 0
-71.3377 -4.81296 0
-69.7151 -4.81412 0
-68.0955 -4.81344 0
-66.4747 -4.81248 0
-64.8517 -4.81118 0
-63.2294 -4.8132 0
-61.606 -4.81382 0
-59.9854 -4.81345 0
-58.3668 -4.81378 0
-56.7439 -4.81181 0
-55.1216 -4.81237 0
-53.4993 -4.81175 0
-51.8789 -4.81284 0
-50.2573 -4.81214 0
-48.6362 -4.80981 0
-47.0152 -4.80816 0
-45.3932 -4.80838 0
-43.77 -4.81082 0
-42.1481 -4.81056 0
-40.5273 -4.81273 0
-38.9071 -4.81156 0
-37.2859 -4.81181 0
-35.6638 -4.81157 0
-34.0417 -4.81073 0
-32.4214 -4.81324 0
-30.8013 -4.81129 0
-29.1793 -4.812 0
-27.5581 -4.8111 0
-25.9386 -4.80906 0
-24.3157 -4.80915 0
-22.6958 -4.81072 0
-21.0757 -4.80898 0
-19.4525 -4.8086 0
-17.8289 -4.81198 0
-16.2086 -4.80747 0
-14.5891 -4.80622 0
-12.9701 -4.80868 0
-11.3492 -4.80819 0
-9.72832 -4.8095 0
-8.1064 -4.81129 0
-6.48857 -4.80891 0
-4.86505 -4.8113 0
-3.24344 -4.81196 0
-1.62236 -4.81141 0
0 -4.81503 0
-1095.2 58.26 0
-1095.25 51.6268 0
-1095.28 45.2106 0
-1095.27 39.1107 0
-1095.25 33.3547 0
-1095.29 27.8659 0
-1095.3 22.5811 0
-1095.23 17.5798 0
-1095.12 12.948 0
-1094.98 8.70948 0
-1094.82 4.86099 0
-1094.64 1.39446 0
-1094.42 -1.70267 0
-1094.18 -4.44733 0
-1093.89 -6.86064 0
-1093.56 -8.96848 0
-1093.18 -10.7959 0
-1092.75 -12.369 0
-1092.27 -13.7127 0
-1091.73 -14.8491 0
-1091.14 -15.7991 0
-1090.5 -16.5819 0
-1089.81 -17.2145 0
-1089.07 -17.7128 0
-1088.29 -18.0893 0
-1087.46 -18.3575 0
-1086.59 -18.5277 0
-1085.68 -18.6095 0
-1084.74 -18.6115 0
-1083.76 -18.5412 0
-1082.74 -18.4055 0
-1081.7 -18.2107 0
-1080.62 -17.9619 0
-1079.51 -17.6648 0
-1078.37 -17.3231 0
-1077.21 -16.9416 0
-1076.02 -16.524 0
-1074.8 -16.0742 0
-1073.55 -15.5958 0
-1072.28 -15.0925 0
-1070.98 -14.5671 0
-1069.66 -14.023 0
-1068.32 -13.4631 0
-1066.95 -12.8902 0
-1065.56 -12.3077 0
-1064.15 -11.7175 0
-1062.72 -11.1223 0
-1061.27 -10.5245 0
-1059.79 -9.92671 0
-1058.3 -9.33067 0
-1056.79 -8.73869 0
-1055.27 -8.15172 0
-1053.73 -7.57281 0
-1052.17 -7.00238 0
-1050.6 -6.44324 0
-1049.01 -5.89592 0
-1047.41 -5.36166 0
-1045.8 -4.84171 0
-1044.17 -4.33692 0
-1042.54 -3.84822 0
-1040.89 -3.37667 0
-1039.24 -2.92267 0
-1037.58 -2.48696 0
-1035.9 -2.07064 0
-1034.22 -1.6731 0
-1032.54 -1.29549 0
-1030.85 -0.937906 0
-1029.15 -0.600885 0
-1027.45 -0.284308 0
-1025.74 0.0128085 0
-1024.03 0.289285 0
-1022.31 0.545605 0
-1020.59 0.781848 0
-1018.87 0.997514 0
-1017.15 1.1939 0
-1015.43 1.37054 0
-1013.7 1.52782 0
-1011.98 1.6665 0
-1010.25 1.78575 0
-1008.52 1.88746 0
-1006.8 1.97121 0
-1005.07 2.03809 0
-1003.35 2.08824 0
-1001.63 2.12196 0
-999.906 2.14007 0
-998.187 2.14328 0
-996.469 2.13181 0
-994.754 2.10677 0
-993.042 2.06813 0
-991.333 2.01748 0
-989.625 1.95462 0
-987.921 1.87965 0
-986.22 1.79461 0
-984.522 1.69886 0
-982.828 1.59376 0
-981.136 1.47965 0
-979.448 1.35732 0
-977.763 1.22779 0
-976.082 1.09053 0
-974.405 0.947088 0
-972.731 0.797834 0
-971.061 0.643235 0
-969.394 0.484778 0
-967.73 0.321978 0
-966.07 0.155817 0
-964.414 -0.0131493 0
-962.76 -0.18473 0
-961.11 -0.357938 0
-959.463 -0.533232 0
-957.82 -0.708931 0
-956.18 -0.884925 0
-954.543 -1.06099 0
-952.909 -1.23663 0
-951.278 -1.41106 0
-949.649 -1.58394 0
-948.024 -1.75543 0
-946.401 -1.92431 0
-944.78 -2.09178 0
-943.162 -2.2556 0
-941.546 -2.41632 0
-939.932 -2.57441 0
-938.321 -2.72853 0
-936.711 -2.87883 0
-935.103 -3.02501 0
-933.497 -3.16687 0
-931.892 -3.30466 0
-930.29 -3.43767 0
-928.689 -3.56593 0
-927.088 -3.68923 0
-925.49 -3.80634 0
-923.891 -3.91923 0
-922.294 -4.02778 0
-920.698 -4.13032 0
-919.103 -4.22745 0
-917.509 -4.31864 0
-915.915 -4.40424 0
-914.322 -4.48516 0
-912.729 -4.55988 0
-911.136 -4.63012 0
-909.543 -4.69537 0
-907.951 -4.7546 0
-906.359 -4.80835 0
-904.768 -4.85677 0
-903.175 -4.89941 0
-901.583 -4.93755 0
-899.99 -4.97144 0
-898.398 -4.99941 0
-896.805 -5.0225 0
-895.211 -5.04156 0
-893.617 -5.056 0
-892.023 -5.06468 0
-890.428 -5.06992 0
-888.833 -5.0711 0
-887.237 -5.06699 0
-885.64 -5.05954 0
-884.043 -5.04873 0
-882.444 -5.03337 0
-880.845 -5.01543 0
-879.246 -4.99329 0
-877.645 -4.96907 0
-876.045 -4.94076 0
-874.443 -4.91007 0
-872.84 -4.87608 0
-871.236 -4.83985 0
-869.631 -4.8013 0
-868.025 -4.76031 0
-866.418 -4.71669 0
-864.811 -4.67139 0
-863.202 -4.62434 0
-861.593 -4.57561 0
-859.984 -4.52541 0
-858.372 -4.47365 0
-856.76 -4.42089 0
-855.147 -4.36699 0
-853.534 -4.31205 0
-851.919 -4.25509 0
-850.304 -4.19843 0
-848.687 -4.14142 0
-847.07 -4.08452 0
-845.453 -4.02711 0
-843.833 -3.96917 0
-842.214 -3.91146 0
-840.593 -3.85432 0
-838.971 -3.79621 0
-837.35 -3.73941 0
-835.728 -3.68173 0
-834.105 -3.62489 0
-832.482 -3.57002 0
-830.857 -3.51408 0
-829.233 -3.45998 0
-827.608 -3.40644 0
-825.981 -3.35322 0
-824.355 -3.30229 0
-822.727 -3.25142 0
-821.099 -3.20201 0
-819.471 -3.15382 0
-817.843 -3.10607 0
-816.214 -3.06056 0
-814.585 -3.01557 0
-812.955 -2.97176 0
-811.326 -2.9296 0
-809.695 -2.88815 0
-808.064 -2.84839 0
-806.433 -2.81105 0
-804.802 -2.77423 0
-803.171 -2.74126 0
-801.539 -2.7087 0
-799.907 -2.67819 0
-798.276 -2.64737 0
-796.643 -2.62076 0
-795.011 -2.59347 0
-793.379 -2.56872 0
-791.746 -2.54568 0
-790.115 -2.52343 0
-788.482 -2.50304 0
-786.849 -2.48459 0
-785.217 -2.4673 0
-783.585 -2.45163 0
-781.953 -2.4378 0
-780.32 -2.42486 0
-778.688 -2.41392 0
-777.056 -2.40483 0
-775.424 -2.39676 0
-773.792 -2.39032 0
-772.161 -2.3848 0
-770.529 -2.38104 0
-768.898 -2.37905 0
-767.266 -2.3772 0
-765.635 -2.377 0
-764.005 -2.37738 0
-762.375 -2.37874 0
-760.744 -2.38176 0
-759.114 -2.38642 0
-757.485 -2.3918 0
-755.855 -2.39768 0
-754.227 -2.40594 0
-752.598 -2.41439 0
-750.968 -2.42225 0
-749.34 -2.43234 0
-747.71 -2.44268 0
-746.082 -2.45402 0
-744.455 -2.46591 0
-742.827 -2.47898 0
-741.199 -2.49158 0
-739.571 -2.50507 0
-737.944 -2.51974 0
-736.318 -2.53333 0
-734.691 -2.54993 0
-733.066 -2.56629 0
-731.44 -2.58195 0
-729.814 -2.59667 0
-728.189 -2.61317 0
-726.564 -2.63118 0
-724.939 -2.64812 0
-723.314 -2.66557 0
-721.69 -2.68257 0
-720.065 -2.70105 0
-718.44 -2.71744 0
-716.817 -2.73524 0
-715.193 -2.75348 0
-713.569 -2.77141 0
-711.946 -2.78836 0
-710.323 -2.80614 0
-708.7 -2.82361 0
-707.078 -2.84177 0
-705.456 -2.85901 0
-703.834 -2.87595 0
-702.212 -2.89263 0
-700.591 -2.9083 0
-698.969 -2.92542 0
-697.346 -2.94069 0
-695.726 -2.95572 0
-694.104 -2.97201 0
-692.484 -2.98755 0
-690.863 -3.00133 0
-689.242 -3.0164 0
-687.621 -3.02925 0
-686 -3.04441 0
-684.379 -3.05718 0
-682.759 -3.07038 0
-681.138 -3.08331 0
-679.518 -3.09456 0
-677.897 -3.10645 0
-676.276 -3.11909 0
-674.657 -3.12982 0
-673.037 -3.14062 0
-671.418 -3.1513 0
-669.797 -3.1608 0
-668.177 -3.16906 0
-666.557 -3.17776 0
-664.938 -3.18587 0
-663.319 -3.19317 0
-661.7 -3.20054 0
-660.081 -3.20786 0
-658.46 -3.2147 0
-656.841 -3.22073 0
-655.221 -3.22622 0
-653.602 -3.23104 0
-651.982 -3.23696 0
-650.363 -3.23994 0
-648.743 -3.24371 0
-647.124 -3.24683 0
-645.503 -3.25109 0
-643.883 -3.25289 0
-642.263 -3.25509 0
-640.643 -3.25677 0
-639.024 -3.25786 0
-637.404 -3.25882 0
-635.783 -3.25912 0
-634.163 -3.25889 0
-632.543 -3.2602 0
-630.922 -3.25953 0
-629.302 -3.25889 0
-627.682 -3.25823 0
-626.061 -3.2577 0
-624.44 -3.25545 0
-622.82 -3.25197 0
-621.2 -3.24892 0
-619.579 -3.24619 0
-617.959 -3.24462 0
-616.337 -3.24225 0
-614.715 -3.23846 0
-613.094 -3.2345 0
-611.472 -3.23073 0
-609.851 -3.22675 0
-608.229 -3.22244 0
-606.609 -3.21852 0
-604.988 -3.21507 0
-603.367 -3.20993 0
-601.746 -3.20447 0
-600.125 -3.20011 0
-598.502 -3.19572 0
-596.88 -3.19103 0
-595.259 -3.18543 0
-593.636 -3.18102 0
-592.014 -3.17451 0
-590.392 -3.16938 0
-588.77 -3.16421 0
-587.148 -3.16024 0
-585.526 -3.15477 0
-583.904 -3.1481 0
-582.282 -3.14305 0
-580.66 -3.13749 0
-579.037 -3.13136 0
-577.414 -3.12659 0
-575.791 -3.12236 0
-574.168 -3.11652 0
-572.546 -3.11307 0
-570.924 -3.10787 0
-569.301 -3.10175 0
-567.679 -3.09597 0
-566.056 -3.09166 0
-564.433 -3.08793 0
-562.809 -3.08484 0
-561.185 -3.07945 0
-559.563 -3.07545 0
-557.941 -3.07217 0
-556.318 -3.06732 0
-554.696 -3.06349 0
-553.072 -3.05955 0
-551.449 -3.05589 0
-549.826 -3.05356 0
-548.202 -3.04998 0
-546.579 -3.0463 0
-544.956 -3.04271 0
-543.332 -3.03956 0
-541.709 -3.03707 0
-540.085 -3.03358 0
-538.462 -3.03051 0
-536.84 -3.02834 0
-535.216 -3.0267 0
-533.591 -3.02403 0
-531.967 -3.02162 0
-530.345 -3.02007 0
-528.721 -3.01792 0
-527.099 -3.01835 0
-525.475 -3.01629 0
-523.852 -3.01639 0
-522.229 -3.01614 0
-520.606 -3.01386 0
-518.983 -3.01194 0
-517.36 -3.0105 0
-515.736 -3.00995 0
-514.114 -3.01065 0
-512.492 -3.01114 0
-510.868 -3.01237 0
-509.244 -3.01065 0
-507.621 -3.0099 0
-505.996 -3.0102 0
-504.374 -3.01012 0
-502.75 -3.01086 0
-501.126 -3.01081 0
-499.504 -3.01177 0
-497.879 -3.01455 0
-496.256 -3.0162 0
-494.633 -3.01665 0
-493.01 -3.0157 0
-491.389 -3.01591 0
-489.765 -3.01862 0
-488.142 -3.02068 0
-486.519 -3.0215 0
-484.896 -3.02193 0
-483.275 -3.02413 0
-481.651 -3.02532 0
-480.028 -3.02829 0
-478.404 -3.03082 0
-476.78 -3.03253 0
-475.158 -3.03607 0
-473.535 -3.03948 0
-471.912 -3.04391 0
-470.289 -3.04387 0
-468.666 -3.04729 0
-467.046 -3.04907 0
-465.423 -3.05004 0
-463.8 -3.05324 0
-462.176 -3.05779 0
-460.554 -3.06084 0
-458.932 -3.06346 0
-457.31 -3.06551 0
-455.687 -3.06834 0
-454.064 -3.07038 0
-452.441 -3.07233 0
-450.819 -3.07493 0
-449.195 -3.07811 0
-447.571 -3.08288 0
-445.95 -3.0862 0
-444.327 -3.0886 0
-442.706 -3.09005 0
-441.083 -3.0949 0
-439.461 -3.09818 0
-437.839 -3.10143 0
-436.216 -3.10482 0
-434.594 -3.10703 0
-432.972 -3.10952 0
-431.349 -3.11356 0
-429.728 -3.11698 0
-428.107 -3.11886 0
-426.485 -3.1224 0
-424.864 -3.12384 0
-423.241 -3.12828 0
-421.619 -3.13003 0
-419.998 -3.1324 0
-418.376 -3.13478 0
-416.753 -3.13767 0
-415.13 -3.1394 0
-413.508 -3.14262 0
-411.885 -3.14571 0
-410.263 -3.14779 0
-408.641 -3.14961 0
-407.02 -3.15212 0
-405.398 -3.1558 0
-403.778 -3.15931 0
-402.156 -3.16016 0
-400.532 -3.16299 0
-398.911 -3.16698 0
-397.289 -3.17013 0
-395.668 -3.17013 0
-394.048 -3.17113 0
-392.426 -3.17193 0
-390.804 -3.17433 0
-389.182 -3.17634 0
-387.56 -3.17779 0
-385.939 -3.17932 0
-384.317 -3.18114 0
-382.696 -3.18183 0
-381.075 -3.18461 0
-379.452 -3.18679 0
-377.829 -3.18657 0
-376.209 -3.18727 0
-374.586 -3.18935 0
-372.963 -3.18853 0
-371.341 -3.19056 0
-369.72 -3.19169 0
-368.099 -3.19343 0
-366.478 -3.19366 0
-364.858 -3.19408 0
-363.237 -3.19779 0
-361.614 -3.19845 0
-359.992 -3.1995 0
-358.37 -3.20179 0
-356.748 -3.20204 0
-355.126 -3.20012 0
-353.506 -3.20213 0
-351.884 -3.20187 0
-350.262 -3.20145 0
-348.64 -3.20233 0
-347.018 -3.20372 0
-345.395 -3.20571 0
-343.772 -3.20588 0
-342.151 -3.20755 0
-340.526 -3.2083 0
-338.906 -3.20751 0
-337.284 -3.20791 0
-335.663 -3.20852 0
-334.042 -3.20999 0
-332.419 -3.20767 0
-330.799 -3.20777 0
-329.177 -3.20785 0
-327.556 -3.20894 0
-325.932 -3.20969 0
-324.312 -3.20832 0
-322.689 -3.21032 0
-321.066 -3.20877 0
-319.444 -3.20788 0
-317.823 -3.20944 0
-316.201 -3.21022 0
-314.581 -3.20917 0
-312.959 -3.21048 0
-311.337 -3.21031 0
-309.715 -3.21012 0
-308.093 -3.21005 0
-306.472 -3.20917 0
-304.85 -3.20914 0
-303.229 -3.20984 0
-301.607 -3.20967 0
-299.983 -3.20941 0
-298.361 -3.20715 0
-296.739 -3.20779 0
-295.119 -3.20835 0
-293.498 -3.20754 0
-291.876 -3.20858 0
-290.252 -3.20847 0
-288.631 -3.20618 0
-287.01 -3.20558 0
-285.387 -3.20522 0
-283.765 -3.20514 0
-282.145 -3.20511 0
-280.522 -3.20464 0
-278.9 -3.20406 0
-277.279 -3.20515 0
-275.657 -3.20484 0
-274.035 -3.20577 0
-272.411 -3.2059 0
-270.79 -3.20743 0
-269.167 -3.20585 0
-267.544 -3.2036 0
-265.921 -3.20367 0
-264.302 -3.20411 0
-262.679 -3.20447 0
-261.059 -3.20557 0
-259.438 -3.20611 0
-257.816 -3.20552 0
-256.195 -3.20505 0
-254.574 -3.20495 0
-252.951 -3.20647 0
-251.329 -3.20483 0
-249.707 -3.20292 0
-248.086 -3.20295 0
-246.463 -3.2031 0
-244.841 -3.20276 0
-243.22 -3.20372 0
-241.598 -3.20344 0
-239.976 -3.20528 0
-238.352 -3.20628 0
-236.733 -3.20406 0
-235.109 -3.20414 0
-233.488 -3.20325 0
-231.867 -3.20243 0
-230.243 -3.20339 0
-228.623 -3.20284 0
-227.001 -3.20242 0
-225.38 -3.20143 0
-223.757 -3.20167 0
-222.137 -3.20082 0
-220.514 -3.20022 0
-218.893 -3.20182 0
-217.271 -3.20127 0
-215.649 -3.20223 0
-214.026 -3.20059 0
-212.404 -3.20043 0
-210.783 -3.20168 0
-209.162 -3.20119 0
-207.542 -3.20313 0
-205.919 -3.20338 0
-204.297 -3.20216 0
-202.674 -3.20301 0
-201.052 -3.20112 0
-199.43 -3.20271 0
-197.809 -3.20643 0
-196.188 -3.20497 0
-194.565 -3.2046 0
-192.946 -3.2049 0
-191.324 -3.20399 0
-189.702 -3.2015 0
-188.08 -3.20311 0
-186.459 -3.20354 0
-184.837 -3.20557 0
-183.215 -3.20388 0
-181.593 -3.2041 0
-179.973 -3.20273 0
-178.351 -3.20347 0
-176.728 -3.20461 0
-175.106 -3.20471 0
-173.485 -3.20698 0
-171.865 -3.20657 0
-170.242 -3.20567 0
-168.622 -3.20644 0
-167 -3.20577 0
-165.38 -3.20577 0
-163.758 -3.20608 0
-162.135 -3.20601 0
-160.514 -3.20492 0
-158.894 -3.20345 0
-157.272 -3.2035 0
-155.649 -3.20216 0
-154.028 -3.20165 0
-152.408 -3.20345 0
-150.786 -3.20411 0
-149.166 -3.20585 0
-147.543 -3.2032 0
-145.921 -3.20379 0
-144.299 -3.20499 0
-142.678 -3.20535 0
-141.055 -3.20652 0
-139.434 -3.20806 0
-137.813 -3.20828 0
-136.193 -3.20589 0
-134.57 -3.20559 0
-132.948 -3.20643 0
-131.327 -3.20675 0
-129.704 -3.20703 0
-128.084 -3.20632 0
-126.461 -3.20458 0
-124.84 -3.20619 0
-123.22 -3.20786 0
-121.599 -3.20831 0
-119.978 -3.20838 0
-118.355 -3.2081 0
-116.734 -3.20742 0
-115.112 -3.20795 0
-113.491 -3.20826 0
-111.87 -3.20883 0
-110.249 -3.20646 0
-108.627 -3.20601 0
-107.005 -3.20846 0
-105.384 -3.20757 0
-103.762 -3.20805 0
-102.141 -3.20763 0
-100.521 -3.20728 0
-98.9008 -3.20904 0
-97.2787 -3.20912 0
-95.6567 -3.21131 0
-94.0367 -3.21092 0
-92.415 -3.20938 0
-90.793 -3.20807 0
-89.1722 -3.20797 0
-87.5507 -3.20827 0
-85.9304 -3.20999 0
-84.308 -3.20972 0
-82.6866 -3.21055 0
-81.0648 -3.21179 0
-79.4447 -3.2107 0
-77.8232 -3.20965 0
-76.2021 -3.21097 0
-74.5801 -3.21088 0
-72.958 -3.20962 0
-71.3374 -3.20793 0
-69.7167 -3.20941 0
-68.0941 -3.20883 0
-66.4726 -3.20888 0
-64.8523 -3.20742 0
-63.2305 -3.20732 0
-61.609 -3.20816 0
-59.987 -3.20831 0
-58.3645 -3.20851 0
-56.7435 -3.20666 0
-55.1218 -3.2066 0
-53.5 -3.20758 0
-51.8788 -3.20754 0
-50.2568 -3.20745 0
-48.6354 -3.20648 0
-47.0143 -3.20458 0
-45.3937 -3.20453 0
-43.7723 -3.20544 0
-42.1497 -3.20768 0
-40.529 -3.20792 0
-38.9073 -3.20587 0
-37.2869 -3.2069 0
-35.6656 -3.20694 0
-34.0436 -3.2074 0
-32.4217 -3.20755 0
-30.7993 -3.20749 0
-29.1794 -3.20749 0
-27.5584 -3.20817 0
-25.937 -3.20557 0
-24.3176 -3.20564 0
-22.6948 -3.20634 0
-21.0728 -3.20571 0
-19.4519 -3.20422 0
-17.8299 -3.20481 0
-16.2101 -3.2053 0
-14.59 -3.20441 0
-12.9699 -3.2041 0
-11.3484 -3.20489 0
-9.72765 -3.20441 0
-8.10599 -3.20631 0
-6.48509 -3.20508 0
-4.8637 -3.20584 0
-3.24281 -3.20804 0
-1.62158 -3.20755 0
0 -3.20936 0
-1102.13 58.8847 0
-1101.76 52.0467 0
-1101.53 45.6537 0
-1101.26 39.5619 0
-1100.99 33.753 0
-1100.72 28.2209 0
-1100.42 22.9771 0
-1100.07 18.0318 0
-1099.63 13.4224 0
-1099.14 9.18814 0
-1098.62 5.34122 0
-1098.08 1.87834 0
-1097.51 -1.21122 0
-1096.93 -3.94347 0
-1096.32 -6.33946 0
-1095.69 -8.42433 0
-1095.04 -10.2236 0
-1094.36 -11.7651 0
-1093.65 -13.0733 0
-1092.9 -14.1729 0
-1092.13 -15.0848 0
-1091.32 -15.8295 0
-1090.48 -16.424 0
-1089.61 -16.8849 0
-1088.7 -17.2257 0
-1087.76 -17.4591 0
-1086.79 -17.5957 0
-1085.8 -17.6453 0
-1084.77 -17.6163 0
-1083.72 -17.5159 0
-1082.64 -17.3511 0
-1081.53 -17.1283 0
-1080.4 -16.8523 0
-1079.25 -16.5284 0
-1078.07 -16.1605 0
-1076.86 -15.7532 0
-1075.63 -15.3108 0
-1074.38 -14.8365 0
-1073.11 -14.334 0
-1071.81 -13.8073 0
-1070.5 -13.259 0
-1069.16 -12.6924 0
-1067.8 -12.1109 0
-1066.42 -11.5168 0
-1065.02 -10.9136 0
-1063.6 -10.3036 0
-1062.16 -9.68928 0
-1060.71 -9.07306 0
-1059.23 -8.45733 0
-1057.74 -7.84416 0
-1056.24 -7.23565 0
-1054.72 -6.63326 0
-1053.18 -6.03913 0
-1051.63 -5.45497 0
-1050.07 -4.88202 0
-1048.5 -4.32203 0
-1046.91 -3.77548 0
-1045.31 -3.24443 0
-1043.7 -2.72887 0
-1042.08 -2.2302 0
-1040.45 -1.74925 0
-1038.81 -1.2866 0
-1037.17 -0.843201 0
-1035.51 -0.419072 0
-1033.85 -0.0151087 0
-1032.19 0.368612 0
-1030.51 0.731518 0
-1028.83 1.07382 0
-1027.15 1.39524 0
-1025.46 1.69614 0
-1023.77 1.97623 0
-1022.07 2.23552 0
-1020.37 2.47414 0
-1018.67 2.69215 0
-1016.97 2.8903 0
-1015.26 3.0683 0
-1013.56 3.22643 0
-1011.85 3.36537 0
-1010.14 3.48509 0
-1008.43 3.58675 0
-1006.72 3.67018 0
-1005.01 3.73621 0
-1003.31 3.78536 0
-1001.6 3.81776 0
-999.893 3.83442 0
-998.188 3.83571 0
-996.484 3.82259 0
-994.783 3.79544 0
-993.083 3.7549 0
-991.384 3.70116 0
-989.689 3.63568 0
-987.996 3.55836 0
-986.305 3.47037 0
-984.616 3.37177 0
-982.931 3.26381 0
-981.248 3.14667 0
-979.567 3.02137 0
-977.89 2.88855 0
-976.215 2.7481 0
-974.544 2.60156 0
-972.875 2.44924 0
-971.21 2.29153 0
-969.547 2.12932 0