<?xml version="1.0"?>
<VTKFile type="StructuredGrid"  version="0.1" byte_order="LittleEndian" compressor="vtkZLibDataCompressor">
  <StructuredGrid WholeExtent="0 700 0 30 0 0">
    <Piece Extent="0 700 0 30 0 0">
      <PointData Vectors="Velocity">
        <DataArray type="Float32" Name="Velocity" NumberOfComponents="3" format="ascii">
-1094.92 83.4872 0
-1095.05 75.6351 0
-1095.24 67.9558 0
-1095.46 60.5568 0
-1095.68 53.4708 0
-1095.86 46.6572 0
-1096.03 40.072 0
-1096.23 33.7569 0
-1096.45 27.7792 0
-1096.66 22.1697 0
-1096.86 16.9317 0
-1097.04 12.0615 0
-1097.18 7.55225 0
-1097.3 3.39313 0
-1097.37 -0.430058 0
-1097.39 -3.93534 0
-1097.36 -7.14094 0
-1097.27 -10.0667 0
-1097.12 -12.7319 0
-1096.91 -15.1547 0
-1096.65 -17.3511 0
-1096.32 -19.3386 0
-1095.95 -21.1329 0
-1095.51 -22.7461 0
-1095.03 -24.192 0
-1094.5 -25.4817 0
-1093.93 -26.6258 0
-1093.31 -27.6336 0
-1092.65 -28.5147 0
-1091.96 -29.2755 0
-1091.23 -29.9243 0
-1090.46 -30.4668 0
-1089.66 -30.9093 0
-1088.82 -31.2566 0
-1087.96 -31.5142 0
-1087.07 -31.6863 0
-1086.14 -31.7776 0
-1085.19 -31.793 0
-1084.2 -31.7363 0
-1083.19 -31.6114 0
-1082.14 -31.4221 0
-1081.07 -31.1727 0
-1079.98 -30.8669 0
-1078.85 -30.5068 0
-1077.69 -30.0979 0
-1076.51 -29.6422 0
-1075.3 -29.1437 0
-1074.07 -28.6062 0
-1072.81 -28.0324 0
-1071.52 -27.4257 0
-1070.21 -26.7888 0
-1068.87 -26.1261 0
-1067.52 -25.4386 0
-1066.13 -24.7305 0
-1064.73 -24.0039 0
-1063.3 -23.2623 0
-1061.85 -22.5068 0
-1060.39 -21.7407 0
-1058.9 -20.9665 0
-1057.39 -20.1849 0
-1055.87 -19.3998 0
-1054.32 -18.6118 0
-1052.76 -17.8241 0
-1051.19 -17.0382 0
-1049.59 -16.2552 0
-1047.99 -15.4773 0
-1046.37 -14.7056 0
-1044.73 -13.9409 0
-1043.08 -13.1862 0
-1041.42 -12.4412 0
-1039.75 -11.7086 0
-1038.07 -10.9877 0
-1036.38 -10.2803 0
-1034.67 -9.58767 0
-1032.96 -8.9102 0
-1031.24 -8.24877 0
-1029.51 -7.60367 0
-1027.78 -6.97659 0
-1026.03 -6.36775 0
-1024.28 -5.77728 0
-1022.53 -5.2057 0
-1020.77 -4.65421 0
-1019 -4.12144 0
-1017.23 -3.61019 0
-1015.46 -3.11807 0
-1013.68 -2.64713 0
-1011.9 -2.19724 0
-1010.11 -1.768 0
-1008.33 -1.35968 0
-1006.54 -0.972647 0
-1004.75 -0.606037 0
-1002.95 -0.260248 0
-1001.16 0.0644414 0
-999.368 0.36882 0
-997.574 0.6525 0
-995.78 0.915075 0
-993.987 1.15721 0
-992.194 1.37992 0
-990.402 1.58249 0
-988.61 1.76574 0
-986.82 1.93054 0
-985.033 2.07637 0
-983.247 2.20352 0
-981.462 2.31246 0
-979.681 2.40458 0
-977.902 2.47916 0
-976.125 2.53649 0
-974.35 2.57792 0
-972.578 2.60307 0
-970.809 2.61236 0
-969.044 2.6073 0
-967.281 2.5868 0
-965.521 2.55243 0
-963.766 2.50434 0
-962.013 2.44296 0
-960.264 2.36911 0
-958.519 2.28265 0
-956.777 2.1846 0
-955.04 2.07628 0
-953.306 1.95743 0
-951.576 1.82787 0
-949.849 1.68849 0
-948.127 1.54056 0
-946.408 1.38441 0
-944.693 1.21985 0
-942.982 1.04785 0
-941.274 0.868878 0
-939.571 0.682849 0
-937.871 0.490773 0
-936.175 0.293466 0
-934.484 0.0912008 0
-932.797 -0.116016 0
-931.112 -0.326766 0
-929.431 -0.5417 0
-927.754 -0.759969 0
-926.08 -0.981239 0
-924.411 -1.20461 0
-922.744 -1.43006 0
-921.08 -1.65736 0
-919.419 -1.88603 0
-917.762 -2.1153 0
-916.108 -2.34421 0
-914.458 -2.57338 0
-912.81 -2.80211 0
-911.164 -3.03052 0
-909.522 -3.25738 0
-907.882 -3.48322 0
-906.244 -3.70695 0
-904.61 -3.92946 0
-902.978 -4.14921 0
-901.348 -4.36615 0
-899.721 -4.58091 0
-898.095 -4.79271 0
-896.472 -5.00021 0
-894.85 -5.2046 0
-893.23 -5.40624 0
-891.613 -5.60358 0
-889.997 -5.79691 0
-888.382 -5.98589 0
-886.77 -6.17031 0
-885.157 -6.35041 0
-883.548 -6.52526 0
-881.939 -6.69491 0
-880.331 -6.85972 0
-878.725 -7.02013 0
-877.118 -7.17424 0
-875.514 -7.32339 0
-873.911 -7.46803 0
-872.308 -7.60714 0
-870.706 -7.7405 0
-869.103 -7.86769 0
-867.502 -7.9894 0
-865.901 -8.10587 0
-864.302 -8.21615 0
-862.701 -8.32108 0
-861.101 -8.42039 0
-859.502 -8.51278 0
-857.902 -8.60059 0
-856.302 -8.6831 0
-854.703 -8.75889 0
-853.103 -8.83028 0
-851.502 -8.89597 0
-849.902 -8.95565 0
-848.301 -9.01051 0
-846.701 -9.05968 0
-845.101 -9.10362 0
-843.499 -9.14237 0
-841.897 -9.17548 0
-840.295 -9.20283 0
-838.69 -9.2259 0
-837.087 -9.2446 0
-835.483 -9.25863 0
-833.878 -9.26691 0
-832.273 -9.2712 0
-830.666 -9.26972 0
-829.06 -9.26497 0
-827.452 -9.25604 0
-825.844 -9.24199 0
-824.234 -9.22517 0
-822.624 -9.20318 0
-821.013 -9.17753 0
-819.4 -9.14895 0
-817.787 -9.1167 0
-816.174 -9.08116 0
-814.558 -9.04077 0
-812.943 -8.99922 0
-811.326 -8.95226 0
-809.709 -8.90508 0
-808.09 -8.85366 0
-806.471 -8.79966 0
-804.851 -8.74381 0
-803.229 -8.68471 0
-801.606 -8.62354 0
-799.983 -8.5607 0
-798.359 -8.49413 0
-796.734 -8.42723 0
-795.108 -8.35818 0
-793.481 -8.2863 0
-791.852 -8.21383 0
-790.222 -8.14006 0
-788.592 -8.06481 0
-786.962 -7.99017 0
-785.33 -7.91142 0
-783.698 -7.83343 0
-782.063 -7.75446 0
-780.43 -7.674 0
-778.794 -7.59216 0
-777.158 -7.51011 0
-775.52 -7.42954 0
-773.882 -7.34722 0
-772.244 -7.26592 0
-770.603 -7.18423 0
-768.963 -7.10119 0
-767.322 -7.01978 0
-765.679 -6.93773 0
-764.037 -6.85524 0
-762.394 -6.77378 0
-760.75 -6.69138 0
-759.105 -6.61225 0
-757.459 -6.53168 0
-755.814 -6.45201 0
-754.167 -6.37381 0
-752.519 -6.29562 0
-750.872 -6.21888 0
-749.223 -6.1425 0
-747.574 -6.06777 0
-745.925 -5.99326 0
-744.275 -5.92041 0
-742.627 -5.8481 0
-740.975 -5.77795 0
-739.324 -5.7092 0
-737.672 -5.6413 0
-736.02 -5.57408 0
-734.368 -5.50828 0
-732.715 -5.44547 0
-731.064 -5.38276 0
-729.41 -5.321 0
-727.756 -5.26136 0
-726.102 -5.20377 0
-724.448 -5.14761 0
-722.794 -5.09105 0
-721.14 -5.0389 0
-719.485 -4.98677 0
-717.83 -4.93709 0
-716.176 -4.88875 0
-714.521 -4.84315 0
-712.866 -4.79712 0
-711.21 -4.75283 0
-709.555 -4.71144 0
-707.899 -4.67277 0
-706.243 -4.63293 0
-704.588 -4.59772 0
-702.932 -4.56415 0
-701.276 -4.53096 0
-699.62 -4.49951 0
-697.965 -4.47042 0
-696.311 -4.44092 0
-694.656 -4.41547 0
-693.001 -4.39105 0
-691.346 -4.3679 0
-689.69 -4.34701 0
-688.035 -4.32663 0
-686.38 -4.30899 0
-684.725 -4.29257 0
-683.07 -4.27745 0
-681.416 -4.26423 0
-679.762 -4.25252 0
-678.108 -4.24198 0
-676.454 -4.23413 0
-674.801 -4.22549 0
-673.147 -4.21891 0
-671.494 -4.2144 0
-669.841 -4.21081 0
-668.188 -4.20936 0
-666.536 -4.20747 0
-664.883 -4.20872 0
-663.231 -4.21013 0
-661.58 -4.21286 0
-659.928 -4.21604 0
-658.276 -4.21999 0
-656.624 -4.22717 0
-654.974 -4.23578 0
-653.324 -4.24262 0
-651.673 -4.25357 0
-650.023 -4.26281 0
-648.373 -4.27298 0
-646.724 -4.286 0
-645.075 -4.29781 0
-643.427 -4.31179 0
-641.778 -4.32536 0
-640.129 -4.34005 0
-638.481 -4.35768 0
-636.833 -4.3742 0
-635.186 -4.39266 0
-633.539 -4.40864 0
-631.891 -4.42645 0
-630.244 -4.44604 0
-628.598 -4.46548 0
-626.952 -4.48472 0
-625.306 -4.50547 0
-623.661 -4.52414 0
-622.016 -4.54625 0
-620.371 -4.56781 0
-618.726 -4.5893 0
-617.082 -4.61154 0
-615.437 -4.63191 0
-613.791 -4.65502 0
-612.148 -4.67683 0
-610.505 -4.69938 0
-608.86 -4.72084 0
-607.216 -4.74431 0
-605.574 -4.76622 0
-603.93 -4.78985 0
-602.288 -4.81468 0
-600.646 -4.83651 0
-599.003 -4.85943 0
-597.362 -4.88164 0
-595.719 -4.90583 0
-594.078 -4.92797 0
-592.436 -4.95038 0
-590.795 -4.97342 0
-589.154 -4.9949 0
-587.512 -5.01733 0
-585.87 -5.0382 0
-584.23 -5.06017 0
-582.59 -5.08174 0
-580.949 -5.10289 0
-579.308 -5.12471 0
-577.669 -5.1455 0
-576.029 -5.16495 0
-574.388 -5.18508 0
-572.747 -5.20515 0
-571.11 -5.22413 0
-569.47 -5.24289 0
-567.83 -5.26234 0
-566.191 -5.28155 0
-564.551 -5.29866 0
-562.913 -5.31553 0
-561.275 -5.33365 0
-559.635 -5.34872 0
-557.997 -5.36594 0
-556.357 -5.38207 0
-554.717 -5.3961 0
-553.08 -5.41318 0
-551.441 -5.42618 0
-549.804 -5.44089 0
-548.165 -5.45391 0
-546.526 -5.46658 0
-544.888 -5.47977 0
-543.249 -5.49319 0
-541.612 -5.50444 0
-539.974 -5.51645 0
-538.336 -5.52779 0
-536.699 -5.53856 0
-535.06 -5.54858 0
-533.423 -5.55648 0
-531.784 -5.56526 0
-530.146 -5.57405 0
-528.506 -5.57993 0
-526.869 -5.58827 0
-525.23 -5.59363 0
-523.592 -5.59976 0
-521.953 -5.6061 0
-520.314 -5.61317 0
-518.677 -5.61928 0
-517.038 -5.62284 0
-515.4 -5.62793 0
-513.761 -5.62901 0
-512.123 -5.63311 0
-510.484 -5.63606 0
-508.845 -5.63863 0
-507.207 -5.6394 0
-505.568 -5.64054 0
-503.929 -5.64197 0
-502.289 -5.64337 0
-500.65 -5.64443 0
-499.012 -5.64423 0
-497.373 -5.64454 0
-495.734 -5.64319 0
-494.096 -5.64233 0
-492.456 -5.64011 0
-490.816 -5.63751 0
-489.178 -5.63697 0
-487.538 -5.63561 0
-485.898 -5.63427 0
-484.257 -5.6325 0
-482.618 -5.62935 0
-480.979 -5.62479 0
-479.339 -5.62238 0
-477.699 -5.61705 0
-476.059 -5.61281 0
-474.42 -5.60802 0
-472.778 -5.60148 0
-471.138 -5.59873 0
-469.499 -5.59403 0
-467.857 -5.58803 0
-466.219 -5.58212 0
-464.576 -5.57753 0
-462.937 -5.57193 0
-461.297 -5.56553 0
-459.657 -5.56071 0
-458.015 -5.55355 0
-456.376 -5.54606 0
-454.734 -5.54254 0
-453.093 -5.53671 0
-451.453 -5.53049 0
-449.812 -5.52315 0
-448.171 -5.51715 0
-446.53 -5.50857 0
-444.888 -5.5026 0
-443.246 -5.49621 0
-441.605 -5.48952 0
-439.963 -5.48131 0
-438.321 -5.47546 0
-436.68 -5.46796 0
-435.038 -5.46111 0
-433.396 -5.45403 0
-431.754 -5.44575 0
-430.112 -5.44142 0
-428.469 -5.43502 0
-426.83 -5.42645 0
-425.187 -5.42143 0
-423.545 -5.41637 0
-421.903 -5.40928 0
-420.262 -5.40041 0
-418.617 -5.39412 0
-416.974 -5.38922 0
-415.333 -5.38133 0
-413.692 -5.37568 0
-412.049 -5.36727 0
-410.405 -5.36062 0
-408.764 -5.3544 0
-407.121 -5.34853 0
-405.478 -5.34317 0
-403.835 -5.33459 0
-402.192 -5.33129 0
-400.55 -5.32428 0
-398.907 -5.31951 0
-397.264 -5.31104 0
-395.622 -5.30739 0
-393.978 -5.30199 0
-392.336 -5.29803 0
-390.693 -5.29353 0
-389.05 -5.28927 0
-387.409 -5.28288 0
-385.766 -5.27714 0
-384.124 -5.27272 0
-382.481 -5.26933 0
-380.836 -5.26775 0
-379.191 -5.26389 0
-377.55 -5.25802 0
-375.907 -5.25637 0
-374.263 -5.25431 0
-372.62 -5.24881 0
-370.976 -5.24824 0
-369.335 -5.24571 0
-367.693 -5.24155 0
-366.051 -5.23722 0
-364.407 -5.23631 0
-362.763 -5.23349 0
-361.12 -5.23285 0
-359.476 -5.22962 0
-357.834 -5.22743 0
-356.19 -5.2243 0
-354.547 -5.22593 0
-352.903 -5.22634 0
-351.261 -5.2242 0
-349.617 -5.22108 0
-347.973 -5.2199 0
-346.331 -5.22255 0
-344.688 -5.22014 0
-343.044 -5.22011 0
-341.401 -5.21994 0
-339.759 -5.21994 0
-338.116 -5.22096 0
-336.473 -5.22273 0
-334.832 -5.22244 0
-333.189 -5.22287 0
-331.546 -5.22388 0
-329.902 -5.22479 0
-328.261 -5.22672 0
-326.617 -5.22785 0
-324.976 -5.22918 0
-323.332 -5.23085 0
-321.689 -5.23391 0
-320.048 -5.2365 0
-318.405 -5.23557 0
-316.761 -5.23847 0
-315.121 -5.23981 0
-313.474 -5.2424 0
-311.832 -5.24628 0
-310.189 -5.24794 0
-308.546 -5.25015 0
-306.903 -5.25441 0
-305.264 -5.25642 0
-303.621 -5.25935 0
-301.978 -5.26216 0
-300.334 -5.26519 0
-298.693 -5.26997 0
-297.051 -5.2723 0
-295.407 -5.27682 0
-293.765 -5.27997 0
-292.121 -5.28409 0
-290.479 -5.28803 0
-288.839 -5.29096 0
-287.198 -5.2941 0
-285.555 -5.29833 0
-283.913 -5.30363 0
-282.271 -5.30526 0
-280.628 -5.30911 0
-278.988 -5.31194 0
-277.346 -5.31769 0
-275.702 -5.32182 0
-274.06 -5.32588 0
-272.419 -5.33123 0
-270.777 -5.33497 0
-269.134 -5.33856 0
-267.493 -5.34261 0
-265.852 -5.34752 0
-264.211 -5.35328 0
-262.569 -5.35595 0
-260.926 -5.36152 0
-259.284 -5.36757 0
-257.643 -5.37154 0
-256.002 -5.37762 0
-254.359 -5.38025 0
-252.718 -5.38318 0
-251.077 -5.38851 0
-249.435 -5.39391 0
-247.792 -5.39666 0
-246.151 -5.40449 0
-244.509 -5.40956 0
-242.868 -5.41203 0
-241.227 -5.41666 0
-239.585 -5.41943 0
-237.944 -5.42335 0
-236.301 -5.42924 0
-234.66 -5.43319 0
-233.018 -5.43675 0
-231.377 -5.44111 0
-229.735 -5.4455 0
-228.096 -5.44949 0
-226.457 -5.45589 0
-224.815 -5.45864 0
-223.173 -5.46443 0
-221.531 -5.47062 0
-219.89 -5.47437 0
-218.25 -5.47871 0
-216.608 -5.48137 0
-214.967 -5.48527 0
-213.326 -5.49075 0
-211.685 -5.4951 0
-210.044 -5.49798 0
-208.404 -5.50169 0
-206.761 -5.50418 0
-205.12 -5.51047 0
-203.48 -5.51305 0
-201.838 -5.51627 0
-200.198 -5.51922 0
-198.556 -5.52677 0
-196.915 -5.5284 0
-195.274 -5.53185 0
-193.635 -5.53437 0
-191.993 -5.53786 0
-190.352 -5.54087 0
-188.712 -5.54414 0
-187.071 -5.54852 0
-185.428 -5.55108 0
-183.789 -5.55448 0
-182.148 -5.55475 0
-180.507 -5.55755 0
-178.867 -5.55901 0
-177.225 -5.56286 0
-175.585 -5.56705 0
-173.944 -5.56686 0
-172.302 -5.57177 0
-170.662 -5.57323 0
-169.023 -5.5751 0
-167.38 -5.57949 0
-165.739 -5.58275 0
-164.101 -5.5853 0
-162.457 -5.58745 0
-160.814 -5.58946 0
-159.175 -5.58974 0
-157.534 -5.5925 0
-155.893 -5.59399 0
-154.252 -5.59508 0
-152.611 -5.59642 0
-150.973 -5.60046 0
-149.332 -5.60552 0
-147.691 -5.60563 0
-146.048 -5.60482 0
-144.405 -5.60877 0
-142.765 -5.61114 0
-141.124 -5.611 0
-139.485 -5.61262 0
-137.846 -5.61355 0
-136.204 -5.61529 0
-134.564 -5.61429 0
-132.921 -5.61836 0
-131.279 -5.62238 0
-129.64 -5.62041 0
-128 -5.62243 0
-126.359 -5.62351 0
-124.716 -5.62493 0
-123.073 -5.62519 0
-121.433 -5.6288 0
-119.794 -5.62921 0
-118.153 -5.62945 0
-116.513 -5.63065 0
-114.871 -5.63532 0
-113.229 -5.63388 0
-111.587 -5.63661 0
-109.945 -5.63451 0
-108.306 -5.63483 0
-106.664 -5.63647 0
-105.022 -5.63779 0
-103.383 -5.63661 0
-101.742 -5.63912 0
-100.099 -5.63995 0
-98.4584 -5.64038 0
-96.8193 -5.64059 0
-95.1787 -5.64091 0
-93.5371 -5.64221 0
-91.8976 -5.64377 0
-90.2556 -5.64483 0
-88.616 -5.64579 0
-86.9738 -5.64129 0
-85.3339 -5.64275 0
-83.6929 -5.63988 0
-82.0526 -5.64451 0
-80.4129 -5.64363 0
-78.7716 -5.6436 0
-77.1303 -5.64386 0
-75.4894 -5.64554 0
-73.8471 -5.64682 0
-72.2069 -5.646 0
-70.5656 -5.6444 0
-68.9237 -5.64557 0
-67.2832 -5.64394 0
-65.6436 -5.64302 0
-64.0022 -5.6442 0
-62.3587 -5.64344 0
-60.7199 -5.64455 0
-59.0794 -5.6426 0
-57.439 -5.64175 0
-55.7969 -5.64093 0
-54.1551 -5.6407 0
-52.5159 -5.64126 0
-50.874 -5.64112 0
-49.233 -5.64283 0
-47.5916 -5.64208 0
-45.9506 -5.641 0
-44.3105 -5.64085 0
-42.6703 -5.64019 0
-41.0258 -5.64287 0
-39.3847 -5.63884 0
-37.7439 -5.64041 0
-36.1043 -5.64116 0
-34.4628 -5.63977 0
-32.8215 -5.64041 0
-31.1804 -5.64043 0
-29.5378 -5.63765 0
-27.8968 -5.63886 0
-26.2564 -5.63754 0
-24.6143 -5.63853 0
-22.9721 -5.64065 0
-21.3314 -5.63887 0
-19.6911 -5.63852 0
-18.0513 -5.63967 0
-16.411 -5.6373 0
-14.7695 -5.63893 0
-13.128 -5.63851 0
-11.4863 -5.63617 0
-9.84551 -5.63547 0
-8.20156 -5.63763 0
-6.56013 -5.63621 0
-4.92107 -5.63492 0
-3.27938 -5.63477 0
-1.64081 -5.63651 0
0 -5.6347 0
-1102.78 83.6552 0
-1102.76 75.7528 0
-1102.72 68.0559 0
-1102.66 60.6483 0
-1102.59 53.5551 0
-1102.55 46.7363 0
-1102.51 40.1492 0
-1102.42 33.8339 0
-1102.28 27.8562 0
-1102.13 22.249 0
-1101.96 17.0167 0
-1101.77 12.1573 0
-1101.56 7.66491 0
-1101.33 3.5288 0
-1101.07 -0.265208 0
-1100.78 -3.73512 0
-1100.45 -6.90047 0
-1100.09 -9.78332 0
-1099.69 -12.4033 0
-1099.24 -14.7794 0
-1098.76 -16.9299 0
-1098.23 -18.8723 0
-1097.66 -20.6217 0
-1097.05 -22.1924 0
-1096.41 -23.5972 0
-1095.73 -24.8479 0
-1095.01 -25.955 0
-1094.26 -26.9274 0
-1093.48 -27.7744 0
-1092.67 -28.5029 0
-1091.82 -29.1202 0
-1090.95 -29.6326 0
-1090.06 -30.0457 0
-1089.13 -30.3646 0
-1088.18 -30.5936 0
-1087.2 -30.7378 0
-1086.2 -30.8023 0
-1085.17 -30.7902 0
-1084.11 -30.7069 0
-1083.03 -30.5554 0
-1081.93 -30.34 0
-1080.8 -30.0642 0
-1079.65 -29.7319 0
-1078.47 -29.3463 0
-1077.27 -28.9111 0
-1076.04 -28.4302 0
-1074.79 -27.907 0
-1073.52 -27.3451 0
-1072.22 -26.7474 0
-1070.9 -26.117 0
-1069.57 -25.4574 0
-1068.21 -24.7716 0
-1066.82 -24.0628 0
-1065.42 -23.3327 0
-1064 -22.5855 0
-1062.56 -21.8235 0
-1061.1 -21.0487 0
-1059.62 -20.2633 0
-1058.13 -19.4706 0
-1056.61 -18.6718 0
-1055.09 -17.869 0
-1053.54 -17.0655 0
-1051.98 -16.2621 0
-1050.41 -15.4609 0
-1048.82 -14.6636 0
-1047.22 -13.8717 0
-1045.6 -13.0865 0
-1043.98 -12.3099 0
-1042.34 -11.543 0
-1040.69 -10.7868 0
-1039.03 -10.0429 0
-1037.36 -9.31236 0
-1035.68 -8.59544 0
-1034 -7.89345 0
-1032.3 -7.20741 0
-1030.59 -6.53821 0
-1028.88 -5.88599 0
-1027.16 -5.25165 0
-1025.44 -4.63593 0
-1023.71 -4.03952 0
-1021.97 -3.46266 0
-1020.23 -2.9064 0
-1018.48 -2.36948 0
-1016.73 -1.85334 0
-1014.98 -1.35849 0
-1013.22 -0.88422 0
-1011.46 -0.430942 0
-1009.7 0.000370201 0
-1007.93 0.411152 0
-1006.16 0.800047 0
-1004.39 1.1681 0
-1002.62 1.51486 0
-1000.85 1.84065 0
-999.077 2.14496 0
-997.304 2.42899 0
-995.53 2.69191 0
-993.757 2.9336 0
-991.984 3.1555 0
-990.211 3.35751 0
-988.439 3.53995 0
-986.668 3.70307 0
-984.898 3.84732 0
-983.13 3.97293 0
-981.364 4.07978 0
-979.599 4.16925 0
-977.837 4.24182 0
-976.076 4.29722 0
-974.318 4.33571 0
-972.562 4.35825 0
-970.808 4.36527 0
-969.057 4.35701 0
-967.309 4.33371 0
-965.564 4.29606 0
-963.821 4.24481 0
-962.081 4.18023 0
-960.344 4.10297 0
-958.611 4.01327 0
-956.881 3.91194 0
-955.154 3.79971 0
-953.43 3.67688 0
-951.71 3.54403 0
-949.992 3.40155 0
-948.278 3.25026 0
-946.568 3.09022 0
-944.861 2.92227 0
-943.157 2.74689 0
-941.457 2.56368 0
-939.759 2.37433 0
-938.066 2.17855 0
-936.375 1.97766 0
-934.688 1.77161 0
-933.004 1.56158 0
-931.324 1.34696 0
-929.647 1.1288 0
-927.973 0.906956 0
-926.302 0.682402 0
-924.634 0.456135 0
-922.969 0.227681 0
-921.306 -0.00288164 0
-919.647 -0.234292 0
-917.99 -0.466357 0
-916.336 -0.698417 0
-914.685 -0.929778 0
-913.036 -1.16188 0
-911.391 -1.39286 0
-909.747 -1.62206 0
-908.106 -1.85041 0
-906.466 -2.07674 0
-904.829 -2.30118 0
-903.195 -2.52348 0
-901.563 -2.74258 0
-899.933 -2.95944 0
-898.304 -3.17287 0
-896.677 -3.38283 0
-895.052 -3.58942 0
-893.429 -3.79195 0
-891.807 -3.9911 0
-890.187 -4.1861 0
-888.568 -4.37664 0
-886.95 -4.56274 0
-885.335 -4.74372 0
-883.719 -4.91931 0
-882.106 -5.09068 0
-880.493 -5.25658 0
-878.881 -5.41732 0
-877.27 -5.57325 0
-875.66 -5.72404 0
-874.051 -5.86847 0
-872.443 -6.0084 0
-870.835 -6.14205 0
-869.227 -6.26982 0
-867.62 -6.39264 0
-866.014 -6.50922 0
-864.408 -6.62011 0
-862.803 -6.72492 0
-861.197 -6.82447 0
-859.591 -6.91687 0
-857.986 -7.00526 0
-856.381 -7.08731 0
-854.775 -7.16295 0
-853.17 -7.23439 0
-851.565 -7.29976 0
-849.959 -7.35981 0
-848.354 -7.41394 0
-846.747 -7.46338 0
-845.141 -7.50595 0
-843.534 -7.54444 0
-841.927 -7.57747 0
-840.319 -7.60438 0
-838.711 -7.62689 0
-837.103 -7.6451 0
-835.494 -7.65798 0
-833.885 -7.66651 0
-832.274 -7.66946 0
-830.663 -7.66745 0
-829.052 -7.66191 0
-827.44 -7.65188 0
-825.828 -7.6377 0
-824.214 -7.61946 0
-822.6 -7.5973 0
-820.985 -7.5713 0
-819.37 -7.54137 0
-817.753 -7.50827 0
-816.136 -7.47179 0
-814.518 -7.43167 0
-812.898 -7.38768 0
-811.279 -7.34156 0
-809.659 -7.2926 0
-808.037 -7.2403 0
-806.416 -7.18602 0
-804.793 -7.12893 0
-803.169 -7.06841 0
-801.545 -7.0063 0
-799.919 -6.94204 0
-798.293 -6.87568 0
-796.666 -6.80712 0
-795.038 -6.73682 0
-793.409 -6.66449 0
-791.779 -6.59101 0
-790.148 -6.51638 0
-788.518 -6.44027 0
-786.886 -6.36437 0
-785.253 -6.28604 0
-783.619 -6.20651 0
-781.986 -6.1259 0
-780.349 -6.04544 0
-778.713 -5.96321 0
-777.077 -5.88087 0
-775.439 -5.79813 0
-773.801 -5.71536 0
-772.162 -5.6339 0
-770.522 -5.55065 0
-768.881 -5.46678 0
-767.24 -5.38441 0
-765.599 -5.30177 0
-763.956 -5.21914 0
-762.313 -5.13634 0
-760.669 -5.05483 0
-759.025 -4.97366 0
-757.38 -4.89328 0
-755.735 -4.81272 0
-754.089 -4.7345 0
-752.443 -4.65563 0
-750.795 -4.57806 0
-749.148 -4.50126 0
-747.5 -4.42603 0
-745.852 -4.35117 0
-744.205 -4.2776 0
-742.555 -4.20534 0
-740.905 -4.13424 0
-739.255 -4.0644 0
-737.605 -3.99661 0
-735.955 -3.92926 0
-734.304 -3.86343 0
-732.652 -3.80013 0
-731.001 -3.73639 0
-729.349 -3.67555 0
-727.697 -3.61539 0
-726.045 -3.55773 0
-724.393 -3.50093 0
-722.74 -3.44498 0
-721.087 -3.3911 0
-719.434 -3.34012 0
-717.781 -3.29005 0
-716.128 -3.24151 0
-714.474 -3.19536 0
-712.822 -3.14973 0
-711.168 -3.10559 0
-709.515 -3.06334 0
-707.86 -3.0244 0
-706.207 -2.98657 0
-704.553 -2.95012 0
-702.899 -2.9158 0
-701.245 -2.88299 0
-699.591 -2.85126 0
-697.937 -2.82242 0
-696.284 -2.79357 0
-694.63 -2.76744 0
-692.976 -2.74392 0
-691.322 -2.72036 0
-689.669 -2.69894 0
-688.016 -2.67986 0
-686.363 -2.66161 0
-684.71 -2.64548 0
-683.057 -2.63111 0
-681.404 -2.61739 0
-679.751 -2.60573 0
-678.099 -2.59572 0
-676.447 -2.58736 0
-674.794 -2.57938 0
-673.141 -2.57288 0
-671.489 -2.56885 0
-669.838 -2.56465 0
-668.186 -2.56351 0
-666.535 -2.56238 0
-664.884 -2.56415 0
-663.234 -2.5654 0
-661.582 -2.56816 0
-659.931 -2.57136 0
-658.281 -2.57717 0
-656.632 -2.58361 0
-654.982 -2.59157 0
-653.333 -2.59951 0
-651.683 -2.6096 0
-650.034 -2.6204 0
-648.384 -2.63056 0
-646.735 -2.64391 0
-645.088 -2.65663 0
-643.439 -2.67012 0
-641.792 -2.68415 0
-640.144 -2.69929 0
-638.497 -2.71719 0
-636.849 -2.73368 0
-635.203 -2.7517 0
-633.556 -2.76875 0
-631.909 -2.78643 0
-630.262 -2.80573 0
-628.617 -2.82561 0
-626.971 -2.84598 0
-625.326 -2.86509 0
-623.681 -2.88597 0
-622.036 -2.90718 0
-620.392 -2.9295 0
-618.747 -2.95142 0
-617.102 -2.97351 0
-615.458 -2.9944 0
-613.813 -3.01695 0
-612.17 -3.03965 0
-610.526 -3.06176 0
-608.883 -3.08337 0
-607.239 -3.10835 0
-605.596 -3.1298 0
-603.954 -3.15446 0
-602.312 -3.17779 0
-600.67 -3.20077 0
-599.027 -3.22338 0
-597.385 -3.24634 0
-595.743 -3.2697 0
-594.101 -3.29281 0
-592.458 -3.31524 0
-590.816 -3.33916 0
-589.175 -3.36067 0
-587.534 -3.38262 0
-585.893 -3.40473 0
-584.252 -3.42612 0
-582.611 -3.44755 0
-580.971 -3.46901 0
-579.33 -3.49124 0
-577.689 -3.51165 0
-576.049 -3.53061 0
-574.408 -3.55094 0
-572.769 -3.57192 0
-571.129 -3.5915 0
-569.489 -3.61073 0
-567.849 -3.62862 0
-566.209 -3.64738 0
-564.57 -3.66535 0
-562.93 -3.68394 0
-561.291 -3.70004 0
-559.651 -3.71613 0
-558.012 -3.73341 0
-556.373 -3.74935 0
-554.733 -3.76459 0
-553.095 -3.78074 0
-551.455 -3.79423 0
-549.817 -3.80827 0
-548.178 -3.82153 0
-546.54 -3.8358 0
-544.901 -3.84896 0
-543.263 -3.86111 0
-541.624 -3.87368 0
-539.985 -3.8844 0
-538.347 -3.89562 0
-536.708 -3.90681 0
-535.07 -3.91604 0
-533.43 -3.9249 0
-531.792 -3.93296 0
-530.153 -3.94167 0
-528.514 -3.94853 0
-526.876 -3.95507 0
-525.237 -3.96073 0
-523.598 -3.96801 0
-521.959 -3.97352 0
-520.32 -3.98055 0
-518.681 -3.98679 0
-517.043 -3.99135 0
-515.403 -3.9952 0
-513.764 -3.99703 0
-512.124 -4.0012 0
-510.485 -4.00391 0
-508.847 -4.00636 0
-507.208 -4.00877 0
-505.569 -4.00898 0
-503.931 -4.00998 0
-502.291 -4.01144 0
-500.651 -4.01232 0
-499.012 -4.01341 0
-497.373 -4.01199 0
-495.734 -4.01113 0
-494.094 -4.00983 0
-492.453 -4.00778 0
-490.815 -4.00566 0
-489.175 -4.0032 0
-487.536 -4.00158 0
-485.895 -4.0007 0
-484.255 -3.99935 0
-482.616 -3.99594 0
-480.976 -3.99167 0
-479.336 -3.9873 0
-477.695 -3.98443 0
-476.056 -3.97924 0
-474.414 -3.97408 0
-472.774 -3.97005 0
-471.133 -3.9649 0
-469.493 -3.96052 0
-467.853 -3.95433 0
-466.213 -3.94932 0
-464.573 -3.94231 0
-462.932 -3.9387 0
-461.292 -3.93278 0
-459.651 -3.92673 0
-458.011 -3.91982 0
-456.37 -3.91288 0
-454.729 -3.90694 0
-453.089 -3.90242 0
-451.447 -3.89609 0
-449.805 -3.88935 0
-448.164 -3.88251 0
-446.523 -3.87518 0
-444.882 -3.86767 0
-443.24 -3.86072 0
-441.599 -3.8543 0
-439.957 -3.84649 0
-438.314 -3.84039 0
-436.672 -3.83346 0
-435.031 -3.82617 0
-433.389 -3.8201 0
-431.748 -3.81166 0
-430.105 -3.80553 0
-428.463 -3.7994 0
-426.821 -3.79254 0
-425.18 -3.7862 0
-423.539 -3.78038 0
-421.896 -3.7734 0
-420.253 -3.76507 0
-418.611 -3.75792 0
-416.969 -3.75302 0
-415.327 -3.74613 0
-413.685 -3.73978 0
-412.042 -3.73171 0
-410.399 -3.72483 0
-408.757 -3.71885 0
-407.115 -3.71244 0
-405.471 -3.7074 0
-403.829 -3.69932 0
-402.186 -3.69508 0
-400.544 -3.68839 0
-398.901 -3.68235 0
-397.258 -3.67588 0
-395.615 -3.67071 0
-393.973 -3.66661 0
-392.331 -3.66262 0
-390.688 -3.65738 0
-389.046 -3.65222 0
-387.404 -3.64743 0
-385.761 -3.64231 0
-384.119 -3.63699 0
-382.476 -3.63397 0
-380.831 -3.63156 0
-379.189 -3.62738 0
-377.547 -3.62307 0
-375.905 -3.61979 0
-374.26 -3.61775 0
-372.619 -3.61351 0
-370.976 -3.61208 0
-369.333 -3.6077 0
-367.69 -3.60471 0
-366.047 -3.60128 0
-364.405 -3.59968 0
-362.761 -3.59744 0
-361.118 -3.59533 0
-359.474 -3.59325 0
-357.831 -3.59112 0
-356.189 -3.58774 0
-354.546 -3.58868 0
-352.903 -3.58819 0
-351.258 -3.58825 0
-349.615 -3.58497 0
-347.974 -3.58519 0
-346.33 -3.58477 0
-344.687 -3.58429 0
-343.045 -3.5845 0
-341.401 -3.5839 0
-339.759 -3.58396 0
-338.118 -3.58454 0
-336.475 -3.58519 0
-334.832 -3.58711 0
-333.188 -3.58607 0
-331.545 -3.58784 0
-329.902 -3.58905 0
-328.26 -3.59101 0
-326.618 -3.59219 0
-324.976 -3.59395 0
-323.334 -3.59478 0
-321.692 -3.59549 0
-320.048 -3.59864 0
-318.406 -3.60091 0
-316.763 -3.60244 0
-315.121 -3.60485 0
-313.478 -3.60736 0
-311.837 -3.60937 0
-310.192 -3.61258 0
-308.549 -3.61513 0
-306.907 -3.61794 0
-305.265 -3.62111 0
-303.623 -3.62343 0
-301.981 -3.62629 0
-300.339 -3.62909 0
-298.695 -3.63419 0
-297.053 -3.63677 0
-295.411 -3.64019 0
-293.768 -3.64362 0
-292.126 -3.64917 0
-290.484 -3.65217 0
-288.842 -3.65592 0
-287.2 -3.65932 0
-285.559 -3.66333 0
-283.917 -3.66689 0
-282.276 -3.67034 0
-280.633 -3.67372 0
-278.991 -3.67849 0
-277.349 -3.68103 0
-275.707 -3.68657 0
-274.066 -3.6912 0
-272.424 -3.69541 0
-270.782 -3.69986 0
-269.139 -3.70389 0
-267.498 -3.70819 0
-265.855 -3.71294 0
-264.214 -3.71809 0
-262.572 -3.72224 0
-260.93 -3.72701 0
-259.29 -3.73118 0
-257.648 -3.73592 0
-256.006 -3.74242 0
-254.365 -3.74474 0
-252.722 -3.74932 0
-251.081 -3.75342 0
-249.439 -3.75843 0
-247.798 -3.763 0
-246.156 -3.76827 0
-244.514 -3.77517 0
-242.873 -3.77813 0
-241.23 -3.78182 0
-239.589 -3.78539 0
-237.947 -3.79047 0
-236.307 -3.79258 0
-234.665 -3.79908 0
-233.023 -3.80223 0
-231.384 -3.80684 0
-229.744 -3.81192 0
-228.102 -3.81582 0
-226.46 -3.8213 0
-224.819 -3.82407 0
-223.178 -3.82898 0
-221.538 -3.83463 0
-219.896 -3.84039 0
-218.255 -3.84441 0
-216.613 -3.84557 0
-214.973 -3.85057 0
-213.33 -3.85629 0
-211.689 -3.86017 0
-210.047 -3.86336 0
-208.407 -3.86766 0
-206.766 -3.87033 0
-205.124 -3.874 0
-203.483 -3.87974 0
-201.842 -3.88264 0
-200.201 -3.88657 0
-198.56 -3.88987 0
-196.918 -3.89356 0
-195.276 -3.89779 0
-193.636 -3.89962 0
-191.995 -3.90388 0
-190.355 -3.90604 0
-188.715 -3.90934 0
-187.074 -3.9138 0
-185.433 -3.91612 0
-183.792 -3.92009 0
-182.15 -3.92137 0
-180.51 -3.92312 0
-178.87 -3.92573 0
-177.228 -3.92996 0
-175.589 -3.9323 0
-173.947 -3.93317 0
-172.306 -3.93532 0
-170.665 -3.93969 0
-169.023 -3.94147 0
-167.384 -3.94392 0
-165.743 -3.94858 0
-164.101 -3.94916 0
-162.459 -3.9509 0
-160.818 -3.95395 0
-159.177 -3.95598 0
-157.535 -3.95865 0
-155.895 -3.96043 0
-154.255 -3.96255 0
-152.615 -3.96325 0
-150.975 -3.96765 0
-149.332 -3.97067 0
-147.692 -3.97232 0
-146.051 -3.97115 0
-144.409 -3.97349 0
-142.767 -3.97609 0
-141.127 -3.97694 0
-139.487 -3.97832 0
-137.846 -3.98057 0
-136.204 -3.97902 0
-134.564 -3.98112 0
-132.921 -3.98333 0
-131.28 -3.98625 0
-129.64 -3.98671 0
-127.999 -3.98785 0
-126.359 -3.99016 0
-124.717 -3.98924 0
-123.077 -3.99223 0
-121.435 -3.99386 0
-119.795 -3.99491 0
-118.154 -3.99516 0
-116.515 -3.9965 0
-114.872 -3.99917 0
-113.23 -3.99964 0
-111.588 -4.00123 0
-109.948 -3.99933 0
-108.307 -4.00146 0
-106.665 -4.00282 0
-105.024 -4.00319 0
-103.383 -4.0034 0
-101.742 -4.00411 0
-100.101 -4.00528 0
-98.4603 -4.00639 0
-96.8207 -4.0052 0
-95.18 -4.0076 0
-93.5383 -4.00906 0
-91.8964 -4.00964 0
-90.2557 -4.01116 0
-88.6117 -4.00937 0
-86.9745 -4.00906 0
-85.3345 -4.00876 0
-83.6926 -4.0073 0
-82.0534 -4.00949 0
-80.4117 -4.0108 0
-78.7697 -4.00825 0
-77.1302 -4.01111 0
-75.4894 -4.01076 0
-73.8498 -4.01011 0
-72.208 -4.01132 0
-70.5661 -4.01084 0
-68.9254 -4.01053 0
-67.2828 -4.00971 0
-65.6422 -4.00847 0
-64.001 -4.00935 0
-62.36 -4.00886 0
-60.7182 -4.00935 0
-59.0776 -4.00966 0
-57.4374 -4.0078 0
-55.7961 -4.00674 0
-54.1559 -4.00808 0
-52.516 -4.00745 0
-50.8754 -4.00846 0
-49.2327 -4.00809 0
-47.5915 -4.0073 0
-45.9491 -4.00815 0
-44.31 -4.00795 0
-42.6685 -4.00544 0
-41.0254 -4.00871 0
-39.3851 -4.00567 0
-37.7435 -4.00586 0
-36.1043 -4.00578 0
-34.463 -4.00455 0
-32.8208 -4.00636 0
-31.1781 -4.00448 0
-29.5372 -4.00465 0
-27.896 -4.00311 0
-26.2557 -4.00204 0
-24.6149 -4.00421 0
-22.9723 -4.0048 0
-21.3307 -4.0044 0
-19.6895 -4.00424 0
-18.05 -4.00494 0
-16.4101 -4.00436 0
-14.7683 -4.00404 0
-13.1263 -4.00376 0
-11.4862 -4.00259 0
-9.84463 -4.0016 0
-8.20281 -4.00087 0
-6.56221 -4.00251 0
-4.92127 -4.00245 0
-3.2828 -4.00192 0
-1.64111 -4.00151 0
0 -3.99968 0
-1110.98 84.1646 0
-1110.56 76.0876 0
-1110.28 68.4154 0
-1109.96 61.0217 0
-1109.63 53.9043 0
-1109.3 47.0591 0
-1108.96 40.4961 0
-1108.57 34.2276 0
-1108.13 28.2797 0
-1107.63 22.6855 0
-1107.11 17.4614 0
-1106.57 12.6102 0
-1106.01 8.12732 0
-1105.44 4.00258 0
-1104.85 0.223091 0
-1104.24 -3.22903 0
-1103.62 -6.37389 0
-1102.97 -9.23276 0
-1102.31 -11.826 0
-1101.62 -14.1738 0
-1100.91 -16.2951 0
-1100.18 -18.2073 0
-1099.42 -19.927 0
-1098.63 -21.4683 0
-1097.82 -22.8443 0
-1096.98 -24.0666 0
-1096.12 -25.1466 0
-1095.24 -26.0926 0
-1094.33 -26.9137 0
-1093.4 -27.6168 0
-1092.45 -28.2094 0
-1091.47 -28.6976 0
-1090.47 -29.0871 0
-1089.46 -29.3822 0
-1088.42 -29.588 0
-1087.35 -29.7096 0
-1086.27 -29.7505 0
-1085.17 -29.7158 0
-1084.04 -29.6095 0
-1082.9 -29.4351 0
-1081.73 -29.1973 0
-1080.54 -28.8988 0
-1079.33 -28.5441 0
-1078.1 -28.1359 0
-1076.85 -27.6789 0
-1075.58 -27.1763 0
-1074.29 -26.6311 0
-1072.98 -26.0481 0
-1071.65 -25.4296 0
-1070.3 -24.7788 0
-1068.93 -24.0991 0
-1067.55 -23.3934 0
-1066.14 -22.6652 0
-1064.72 -21.9168 0
-1063.28 -21.1513 0
-1061.83 -20.3716 0
-1060.35 -19.5796 0
-1058.87 -18.7777 0
-1057.36 -17.9684 0
-1055.85 -17.1539 0
-1054.31 -16.3368 0
-1052.77 -15.5185 0
-1051.21 -14.7011 0
-1049.64 -13.8864 0
-1048.05 -13.0762 0
-1046.46 -12.2722 0
-1044.85 -11.4754 0
-1043.23 -10.6875 0
-1041.6 -9.9097 0
-1039.96 -9.1433 0
-1038.32 -8.38942 0
-1036.66 -7.64999 0
-1034.99 -6.9244 0
-1033.32 -6.21451 0
-1031.64 -5.52046 0
-1029.95 -4.84407 0
-1028.25 -4.18533 0
-1026.55 -3.54461 0
-1024.85 -2.92294 0
-1023.13 -2.32143 0
-1021.42 -1.73947 0
-1019.69 -1.17813 0
-1017.97 -0.637502 0
-1016.24 -0.117261 0
-1014.5 0.381277 0
-1012.77 0.858879 0
-1011.02 1.3145 0
-1009.28 1.74857 0
-1007.54 2.16115 0
-1005.79 2.55232 0
-1004.04 2.92167 0
-1002.29 3.26951 0
-1000.54 3.596 0
-998.786 3.90125 0
-997.032 4.18538 0
-995.279 4.44836 0
-993.526 4.69032 0
-991.772 4.91174 0
-990.018 5.11328 0
-988.266 5.29514 0
-986.513 5.45721 0
-984.762 5.60002 0
-983.012 5.72413 0