<?xml version="1.0"?>
<VTKFile type="StructuredGrid"  version="0.1" byte_order="LittleEndian" compressor="vtkZLibDataCompressor">
  <StructuredGrid WholeExtent="0 700 0 30 0 0">
    <Piece Extent="0 700 0 30 0 0">
      <PointData Vectors="Velocity">
        <DataArray type="Float32" Name="Velocity" NumberOfComponents="3" format="ascii">
-1085.47 155.138 0
-1085.53 144.772 0
-1085.66 134.567 0
-1085.82 124.608 0
-1085.99 114.936 0
-1086.16 105.563 0
-1086.33 96.4978 0
-1086.51 87.7483 0
-1086.7 79.3309 0
-1086.88 71.2521 0
-1087.04 63.5226 0
-1087.2 56.1416 0
-1087.34 49.1037 0
-1087.46 42.4053 0
-1087.56 36.0338 0
-1087.62 29.9876 0
-1087.65 24.2531 0
-1087.63 18.8134 0
-1087.57 13.6541 0
-1087.47 8.76269 0
-1087.33 4.11972 0
-1087.16 -0.273345 0
-1086.93 -4.4444 0
-1086.68 -8.39478 0
-1086.38 -12.1337 0
-1086.05 -15.6775 0
-1085.69 -19.0314 0
-1085.29 -22.2072 0
-1084.87 -25.2138 0
-1084.42 -28.0453 0
-1083.95 -30.7198 0
-1083.45 -33.2339 0
-1082.92 -35.5975 0
-1082.37 -37.8173 0
-1081.8 -39.894 0
-1081.21 -41.8298 0
-1080.6 -43.6318 0
-1079.96 -45.2992 0
-1079.31 -46.838 0
-1078.63 -48.2538 0
-1077.92 -49.5436 0
-1077.2 -50.7209 0
-1076.46 -51.7778 0
-1075.69 -52.7225 0
-1074.9 -53.5576 0
-1074.08 -54.2901 0
-1073.24 -54.9164 0
-1072.38 -55.4468 0
-1071.49 -55.8768 0
-1070.58 -56.2242 0
-1069.65 -56.4757 0
-1068.7 -56.6467 0
-1067.72 -56.7293 0
-1066.71 -56.7351 0
-1065.69 -56.6664 0
-1064.64 -56.5261 0
-1063.57 -56.31 0
-1062.47 -56.0318 0
-1061.36 -55.6857 0
-1060.22 -55.2878 0
-1059.06 -54.8274 0
-1057.88 -54.3138 0
-1056.68 -53.7518 0
-1055.45 -53.1363 0
-1054.21 -52.4758 0
-1052.95 -51.7747 0
-1051.66 -51.0277 0
-1050.36 -50.2442 0
-1049.04 -49.4275 0
-1047.7 -48.5753 0
-1046.33 -47.6922 0
-1044.96 -46.78 0
-1043.57 -45.8433 0
-1042.15 -44.8804 0
-1040.73 -43.8943 0
-1039.28 -42.8931 0
-1037.82 -41.867 0
-1036.34 -40.8281 0
-1034.85 -39.7756 0
-1033.34 -38.7079 0
-1031.82 -37.6288 0
-1030.29 -36.5408 0
-1028.74 -35.4446 0
-1027.18 -34.3413 0
-1025.61 -33.2348 0
-1024.02 -32.1236 0
-1022.42 -31.0057 0
-1020.81 -29.8914 0
-1019.19 -28.7753 0
-1017.56 -27.6638 0
-1015.92 -26.554 0
-1014.26 -25.448 0
-1012.6 -24.3472 0
-1010.93 -23.25 0
-1009.25 -22.1619 0
-1007.56 -21.0807 0
-1005.86 -20.0094 0
-1004.15 -18.9501 0
-1002.43 -17.897 0
-1000.71 -16.8613 0
-998.986 -15.8306 0
-997.249 -14.815 0
-995.509 -13.8158 0
-993.76 -12.8304 0
-992.005 -11.8573 0
-990.247 -10.8992 0
-988.48 -9.96172 0
-986.711 -9.03485 0
-984.937 -8.12951 0
-983.159 -7.24249 0
-981.376 -6.36503 0
-979.585 -5.51304 0
-977.795 -4.6798 0
-976 -3.8602 0
-974.204 -3.06108 0
-972.404 -2.28003 0
-970.602 -1.51876 0
-968.795 -0.779167 0
-966.985 -0.0586612 0
-965.171 0.643683 0
-963.358 1.32198 0
-961.542 1.98277 0
-959.725 2.62189 0
-957.906 3.23811 0
-956.09 3.83306 0
-954.272 4.41249 0
-952.454 4.97023 0
-950.629 5.50417 0
-948.811 6.01619 0
-946.99 6.51156 0
-945.172 6.98627 0
-943.35 7.44015 0
-941.528 7.87226 0
-939.706 8.28561 0
-937.885 8.67888 0
-936.065 9.05155 0
-934.243 9.40208 0
-932.426 9.73201 0
-930.611 10.0448 0
-928.797 10.3375 0
-926.987 10.6124 0
-925.174 10.8687 0
-923.362 11.1054 0
-921.554 11.3215 0
-919.747 11.5211 0
-917.942 11.7031 0
-916.14 11.8667 0
-914.335 12.0118 0
-912.532 12.1404 0
-910.736 12.2504 0
-908.944 12.3438 0
-907.152 12.4222 0
-905.361 12.4826 0
-903.571 12.5256 0
-901.788 12.5545 0
-900.005 12.5671 0
-898.226 12.566 0
-896.448 12.5493 0
-894.675 12.5192 0
-892.903 12.4764 0
-891.134 12.421 0
-889.368 12.3485 0
-887.605 12.2644 0
-885.844 12.1706 0
-884.088 12.0616 0
-882.332 11.9388 0
-880.58 11.8064 0
-878.831 11.66 0
-877.084 11.5018 0
-875.344 11.34 0
-873.601 11.1664 0
-871.864 10.981 0
-870.132 10.7835 0
-868.399 10.5807 0
-866.67 10.3692 0
-864.944 10.1469 0
-863.222 9.91621 0
-861.503 9.67682 0
-859.785 9.43032 0
-858.073 9.18182 0
-856.361 8.92174 0
-854.65 8.65543 0
-852.945 8.38335 0
-851.24 8.10716 0
-849.544 7.82673 0
-847.846 7.5403 0
-846.153 7.25046 0
-844.462 6.95387 0
-842.771 6.65098 0
-841.084 6.34369 0
-839.402 6.03731 0
-837.722 5.72561 0
-836.042 5.41326 0
-834.367 5.09627 0
-832.693 4.77778 0
-831.022 4.45614 0
-829.355 4.13454 0
-827.689 3.81127 0
-826.025 3.48382 0
-824.36 3.15688 0
-822.7 2.83193 0
-821.041 2.5033 0
-819.383 2.17563 0
-817.728 1.84868 0
-816.078 1.51879 0
-814.429 1.19167 0
-812.781 0.86423 0
-811.137 0.539386 0
-809.493 0.217377 0
-807.852 -0.102979 0
-806.211 -0.426617 0
-804.572 -0.748749 0
-802.937 -1.06644 0
-801.3 -1.37691 0
-799.664 -1.69066 0
-798.029 -1.99981 0
-796.399 -2.30649 0
-794.767 -2.6135 0
-793.14 -2.91708 0
-791.515 -3.21206 0
-789.889 -3.50658 0
-788.264 -3.79529 0
-786.641 -4.08783 0
-785.018 -4.37446 0
-783.395 -4.65264 0
-781.775 -4.93301 0
-780.155 -5.20448 0
-778.536 -5.47377 0
-776.919 -5.73899 0
-775.305 -6.00209 0
-773.689 -6.25809 0
-772.075 -6.50552 0
-770.459 -6.75148 0
-768.843 -6.99419 0
-767.229 -7.23261 0
-765.617 -7.46652 0
-764.001 -7.69281 0
-762.389 -7.91398 0
-760.779 -8.13599 0
-759.17 -8.34702 0
-757.558 -8.55495 0
-755.95 -8.75605 0
-754.34 -8.95492 0
-752.73 -9.14625 0
-751.123 -9.33914 0
-749.512 -9.52093 0
-747.902 -9.69705 0
-746.294 -9.86797 0
-744.688 -10.0356 0
-743.079 -10.1976 0
-741.473 -10.3515 0
-739.864 -10.5084 0
-738.257 -10.6478 0
-736.649 -10.7874 0
-735.041 -10.9238 0
-733.432 -11.0541 0
-731.826 -11.1796 0
-730.216 -11.3011 0
-728.607 -11.4116 0
-726.996 -11.5215 0
-725.386 -11.6293 0
-723.778 -11.7301 0
-722.169 -11.8232 0
-720.558 -11.9085 0
-718.946 -11.9908 0
-717.339 -12.077 0
-715.727 -12.151 0
-714.116 -12.2147 0
-712.505 -12.2835 0
-710.893 -12.3414 0
-709.283 -12.3983 0
-707.671 -12.4475 0
-706.056 -12.4962 0
-704.445 -12.5409 0
-702.83 -12.5757 0
-701.215 -12.6142 0
-699.598 -12.6399 0
-697.981 -12.6701 0
-696.364 -12.691 0
-694.744 -12.7084 0
-693.127 -12.7225 0
-691.51 -12.7344 0
-689.89 -12.7405 0
-688.271 -12.742 0
-686.652 -12.7424 0
-685.028 -12.7366 0
-683.403 -12.7272 0
-681.783 -12.7207 0
-680.162 -12.7024 0
-678.537 -12.6813 0
-676.913 -12.6601 0
-675.287 -12.6392 0
-673.658 -12.6139 0
-672.033 -12.583 0
-670.405 -12.5514 0
-668.779 -12.5147 0
-667.147 -12.4787 0
-665.521 -12.4375 0
-663.893 -12.3951 0
-662.264 -12.3489 0
-660.632 -12.3041 0
-659.001 -12.2502 0
-657.37 -12.2049 0
-655.737 -12.1507 0
-654.102 -12.0931 0
-652.468 -12.0377 0
-650.833 -11.9784 0
-649.197 -11.9164 0
-647.563 -11.8503 0
-645.925 -11.7873 0
-644.287 -11.7229 0
-642.648 -11.654 0
-641.01 -11.5863 0
-639.368 -11.5172 0
-637.726 -11.4465 0
-636.087 -11.3689 0
-634.445 -11.3004 0
-632.804 -11.224 0
-631.162 -11.1504 0
-629.516 -11.0759 0
-627.876 -10.9994 0
-626.233 -10.9174 0
-624.587 -10.8429 0
-622.938 -10.7617 0
-621.295 -10.6806 0
-619.649 -10.6009 0
-618.003 -10.5253 0
-616.356 -10.4413 0
-614.71 -10.3624 0
-613.059 -10.2828 0
-611.409 -10.1962 0
-609.758 -10.12 0
-608.106 -10.0404 0
-606.453 -9.95786 0
-604.804 -9.8756 0
-603.153 -9.79584 0
-601.497 -9.71078 0
-599.845 -9.63543 0
-598.194 -9.55636 0
-596.534 -9.47803 0
-594.883 -9.39638 0
-593.228 -9.31706 0
-591.572 -9.23995 0
-589.918 -9.16247 0
-588.262 -9.08852 0
-586.607 -9.00966 0
-584.945 -8.93646 0
-583.294 -8.85977 0
-581.636 -8.78889 0
-579.976 -8.7173 0
-578.32 -8.64756 0
-576.664 -8.57485 0
-575.003 -8.5056 0
-573.345 -8.43639 0
-571.685 -8.37147 0
-570.026 -8.30138 0
-568.366 -8.23236 0
-566.706 -8.17255 0
-565.045 -8.1048 0
-563.383 -8.0421 0
-561.726 -7.97998 0
-560.066 -7.92379 0
-558.405 -7.86256 0
-556.741 -7.8039 0
-555.076 -7.75178 0
-553.415 -7.69702 0
-551.756 -7.64373 0
-550.096 -7.59396 0
-548.435 -7.53874 0
-546.776 -7.48774 0
-545.116 -7.44184 0
-543.451 -7.3922 0
-541.789 -7.34641 0
-540.132 -7.30607 0
-538.467 -7.26203 0
-536.804 -7.21882 0
-535.14 -7.18652 0
-533.481 -7.14488 0
-531.817 -7.10918 0
-530.156 -7.06479 0
-528.494 -7.03349 0
-526.831 -7.00267 0
-525.166 -6.96716 0
-523.503 -6.93739 0
-521.841 -6.90836 0
-520.182 -6.88198 0
-518.517 -6.86177 0
-516.853 -6.83125 0
-515.192 -6.81308 0
-513.531 -6.7853 0
-511.868 -6.76646 0
-510.208 -6.74681 0
-508.546 -6.72587 0
-506.882 -6.70866 0
-505.219 -6.69791 0
-503.557 -6.67956 0
-501.896 -6.66854 0
-500.233 -6.65711 0
-498.569 -6.6486 0
-496.906 -6.64322 0
-495.243 -6.63944 0
-493.58 -6.63558 0
-491.919 -6.63177 0
-490.26 -6.62632 0
-488.598 -6.62245 0
-486.94 -6.62474 0
-485.28 -6.62834 0
-483.619 -6.63194 0
-481.959 -6.63309 0
-480.297 -6.63646 0
-478.637 -6.63973 0
-476.974 -6.64622 0
-475.31 -6.65973 0
-473.65 -6.67098 0
-471.991 -6.68379 0
-470.326 -6.69741 0
-468.666 -6.70992 0
-467.007 -6.7254 0
-465.348 -6.73984 0
-463.686 -6.76128 0
-462.03 -6.77781 0
-460.363 -6.79282 0
-458.707 -6.81299 0
-457.05 -6.83751 0
-455.397 -6.85707 0
-453.736 -6.88219 0
-452.077 -6.90656 0
-450.419 -6.93438 0
-448.76 -6.95938 0
-447.1 -6.98054 0
-445.444 -7.01274 0
-443.785 -7.04187 0
-442.126 -7.06503 0
-440.472 -7.09962 0
-438.816 -7.12663 0
-437.158 -7.15288 0
-435.503 -7.19452 0
-433.845 -7.22678 0
-432.194 -7.25862 0
-430.539 -7.2919 0
-428.879 -7.32363 0
-427.224 -7.35942 0
-425.571 -7.39535 0
-423.913 -7.43896 0
-422.262 -7.47601 0
-420.608 -7.50951 0
-418.952 -7.54604 0
-417.292 -7.58679 0
-415.639 -7.62741 0
-413.987 -7.65712 0
-412.333 -7.69909 0
-410.679 -7.73948 0
-409.026 -7.77237 0
-407.371 -7.81303 0
-405.716 -7.85671 0
-404.061 -7.89881 0
-402.41 -7.94129 0
-400.759 -7.97661 0
-399.101 -8.0184 0
-397.449 -8.06572 0
-395.793 -8.10288 0
-394.145 -8.14768 0
-392.497 -8.19396 0
-390.843 -8.22703 0
-389.194 -8.27276 0
-387.54 -8.31502 0
-385.892 -8.358 0
-384.238 -8.4012 0
-382.587 -8.4419 0
-380.936 -8.48377 0
-379.284 -8.52262 0
-377.633 -8.56866 0
-375.981 -8.61014 0
-374.33 -8.6535 0
-372.679 -8.6989 0
-371.032 -8.73808 0
-369.383 -8.7824 0
-367.734 -8.82586 0
-366.083 -8.86422 0
-364.429 -8.91097 0
-362.778 -8.95048 0
-361.13 -8.99662 0
-359.484 -9.03629 0
-357.836 -9.07748 0
-356.185 -9.11696 0
-354.537 -9.15653 0
-352.89 -9.20288 0
-351.239 -9.24338 0
-349.593 -9.2843 0
-347.945 -9.31958 0
-346.298 -9.3623 0
-344.651 -9.39879 0
-342.999 -9.43795 0
-341.349 -9.4731 0
-339.706 -9.50703 0
-338.057 -9.54836 0
-336.408 -9.59183 0
-334.76 -9.63062 0
-333.115 -9.66862 0
-331.465 -9.70662 0
-329.821 -9.74151 0
-328.172 -9.77758 0
-326.525 -9.80957 0
-324.877 -9.84555 0
-323.232 -9.8843 0
-321.584 -9.9153 0
-319.937 -9.95218 0
-318.29 -9.98221 0
-316.642 -10.0149 0
-314.996 -10.0457 0
-313.35 -10.0786 0
-311.702 -10.1084 0
-310.056 -10.1378 0
-308.408 -10.1659 0
-306.761 -10.1942 0
-305.117 -10.2255 0
-303.471 -10.2545 0
-301.824 -10.2852 0
-300.178 -10.313 0
-298.531 -10.3386 0
-296.886 -10.3646 0
-295.239 -10.393 0
-293.594 -10.4199 0
-291.95 -10.4417 0
-290.305 -10.4648 0
-288.656 -10.4902 0
-287.012 -10.5127 0
-285.368 -10.5385 0
-283.718 -10.5588 0
-282.074 -10.5804 0
-280.429 -10.5998 0
-278.782 -10.623 0
-277.139 -10.6421 0
-275.489 -10.6631 0
-273.839 -10.6827 0
-272.19 -10.7039 0
-270.546 -10.7199 0
-268.898 -10.7397 0
-267.252 -10.7553 0
-265.607 -10.7714 0
-263.96 -10.7883 0
-262.314 -10.8055 0
-260.666 -10.821 0
-259.019 -10.837 0
-257.373 -10.8523 0
-255.728 -10.8653 0
-254.081 -10.877 0
-252.436 -10.8851 0
-250.79 -10.8979 0
-249.145 -10.9102 0
-247.497 -10.9207 0
-245.855 -10.9333 0
-244.206 -10.941 0
-242.556 -10.9474 0
-240.91 -10.9571 0
-239.261 -10.9634 0
-237.614 -10.9729 0
-235.968 -10.9772 0
-234.321 -10.9892 0
-232.673 -10.9969 0
-231.027 -11.0019 0
-229.381 -11.0081 0
-227.736 -11.0152 0
-226.087 -11.0213 0
-224.44 -11.0251 0
-222.789 -11.0298 0
-221.144 -11.0332 0
-219.498 -11.034 0
-217.852 -11.0379 0
-216.205 -11.041 0
-214.555 -11.0431 0
-212.91 -11.045 0
-211.266 -11.0465 0
-209.616 -11.0466 0
-207.967 -11.0468 0
-206.318 -11.0433 0
-204.668 -11.0442 0
-203.019 -11.0456 0
-201.371 -11.0449 0
-199.725 -11.0415 0
-198.076 -11.0411 0
-196.429 -11.0435 0
-194.782 -11.039 0
-193.136 -11.034 0
-191.484 -11.0341 0
-189.833 -11.0288 0
-188.185 -11.025 0
-186.537 -11.0206 0
-184.892 -11.0178 0
-183.24 -11.0159 0
-181.592 -11.0078 0
-179.943 -11.0023 0
-178.292 -11.0021 0
-176.645 -10.9936 0
-174.996 -10.9864 0
-173.349 -10.9785 0
-171.7 -10.9704 0
-170.049 -10.967 0
-168.402 -10.9549 0
-166.752 -10.9515 0
-165.105 -10.9422 0
-163.455 -10.9364 0
-161.808 -10.9263 0
-160.163 -10.9218 0
-158.513 -10.9129 0
-156.863 -10.907 0
-155.213 -10.8962 0
-153.562 -10.8879 0
-151.913 -10.8814 0
-150.263 -10.8756 0
-148.616 -10.8626 0
-146.968 -10.8561 0
-145.315 -10.8545 0
-143.664 -10.8387 0
-142.013 -10.8316 0
-140.363 -10.8207 0
-138.715 -10.8101 0
-137.062 -10.7989 0
-135.412 -10.7906 0
-133.762 -10.7818 0
-132.114 -10.7732 0
-130.465 -10.7607 0
-128.815 -10.7531 0
-127.163 -10.7405 0
-125.51 -10.7317 0
-123.86 -10.7196 0
-122.208 -10.7149 0
-120.559 -10.7067 0
-118.908 -10.6937 0
-117.258 -10.6837 0
-115.608 -10.6781 0
-113.959 -10.662 0
-112.308 -10.6526 0
-110.657 -10.6434 0
-109.005 -10.6378 0
-107.352 -10.6271 0
-105.701 -10.6215 0
-104.053 -10.6078 0
-102.4 -10.6016 0
-100.751 -10.5924 0
-99.1021 -10.5805 0
-97.4501 -10.5734 0
-95.7984 -10.5639 0
-94.1467 -10.5504 0
-92.4944 -10.5411 0
-90.8411 -10.5333 0
-89.1913 -10.5234 0
-87.5393 -10.5164 0
-85.8893 -10.5078 0
-84.239 -10.4993 0
-82.5856 -10.4906 0
-80.9345 -10.4795 0
-79.2845 -10.4696 0
-77.633 -10.4658 0
-75.9815 -10.4544 0
-74.3341 -10.4469 0
-72.6812 -10.4388 0
-71.0275 -10.432 0
-69.3795 -10.4208 0
-67.7261 -10.4176 0
-66.0763 -10.409 0
-64.4241 -10.4037 0
-62.7736 -10.3922 0
-61.1214 -10.3838 0
-59.4688 -10.3801 0
-57.8163 -10.3718 0
-56.1674 -10.3681 0
-54.5167 -10.3625 0
-52.8647 -10.3532 0
-51.2116 -10.3455 0
-49.5599 -10.341 0
-47.9068 -10.3363 0
-46.2567 -10.332 0
-44.6098 -10.3244 0
-42.9565 -10.3161 0
-41.3056 -10.3121 0
-39.6511 -10.306 0
-37.999 -10.3033 0
-36.3442 -10.2974 0
-34.6949 -10.2952 0
-33.044 -10.2921 0
-31.3897 -10.285 0
-29.7371 -10.2829 0
-28.0853 -10.2795 0
-26.4332 -10.274 0
-24.7791 -10.2735 0
-23.1269 -10.2676 0
-21.4746 -10.2625 0
-19.8235 -10.2576 0
-18.1712 -10.2571 0
-16.5209 -10.2529 0
-14.8687 -10.2516 0
-13.2166 -10.2482 0
-11.5641 -10.2509 0
-9.91358 -10.2486 0
-8.26025 -10.2476 0
-6.6097 -10.247 0
-4.95728 -10.2449 0
-3.30607 -10.2462 0
-1.65322 -10.2453 0
0 -10.2474 0
-1095.84 155.247 0
-1095.77 144.84 0
-1095.7 134.619 0
-1095.6 124.655 0
-1095.49 114.98 0
-1095.38 105.605 0
-1095.26 96.5398 0
-1095.12 87.7912 0
-1094.97 79.3745 0
-1094.8 71.3015 0
-1094.63 63.5786 0
-1094.45 56.2094 0
-1094.25 49.1843 0
-1094.03 42.5007 0
-1093.8 36.1523 0
-1093.54 30.1309 0
-1093.26 24.4233 0
-1092.96 19.0151 0
-1092.62 13.8897 0
-1092.26 9.03141 0
-1091.87 4.41853 0
-1091.45 0.0580942 0
-1091.01 -4.07744 0
-1090.53 -7.99873 0
-1090.03 -11.711 0
-1089.51 -15.2255 0
-1088.96 -18.5532 0
-1088.39 -21.7053 0
-1087.8 -24.685 0
-1087.18 -27.4992 0
-1086.55 -30.1472 0
-1085.89 -32.6426 0
-1085.22 -34.9865 0
-1084.53 -37.1854 0
-1083.81 -39.2435 0
-1083.09 -41.1613 0
-1082.34 -42.9409 0
-1081.57 -44.5912 0
-1080.79 -46.1089 0
-1079.99 -47.5045 0
-1079.17 -48.7754 0
-1078.32 -49.9291 0
-1077.46 -50.9681 0
-1076.58 -51.8931 0
-1075.68 -52.7076 0
-1074.76 -53.416 0
-1073.83 -54.0224 0
-1072.87 -54.5307 0
-1071.89 -54.9426 0
-1070.89 -55.2629 0
-1069.87 -55.4953 0
-1068.83 -55.6427 0
-1067.76 -55.7028 0
-1066.68 -55.6884 0
-1065.59 -55.6 0
-1064.47 -55.4364 0
-1063.33 -55.2016 0
-1062.17 -54.9021 0
-1060.99 -54.5373 0
-1059.79 -54.1165 0
-1058.58 -53.6355 0
-1057.34 -53.1016 0
-1056.09 -52.5189 0
-1054.82 -51.8862 0
-1053.53 -51.2073 0
-1052.23 -50.4842 0
-1050.9 -49.722 0
-1049.56 -48.9196 0
-1048.21 -48.0859 0
-1046.83 -47.2161 0
-1045.44 -46.3144 0
-1044.04 -45.3887 0
-1042.62 -44.4338 0
-1041.18 -43.4526 0
-1039.73 -42.4532 0
-1038.27 -41.4359 0
-1036.79 -40.3985 0
-1035.3 -39.3423 0
-1033.79 -38.2744 0
-1032.28 -37.1938 0
-1030.74 -36.1015 0
-1029.2 -35.0009 0
-1027.64 -33.8914 0
-1026.08 -32.7761 0
-1024.5 -31.6564 0
-1022.91 -30.5328 0
-1021.31 -29.4049 0
-1019.7 -28.2807 0
-1018.08 -27.1561 0
-1016.45 -26.0312 0
-1014.81 -24.9126 0
-1013.16 -23.7949 0
-1011.5 -22.6855 0
-1009.84 -21.5805 0
-1008.16 -20.485 0
-1006.48 -19.3957 0
-1004.79 -18.3148 0
-1003.1 -17.2458 0
-1001.39 -16.1891 0
-999.684 -15.1428 0
-997.966 -14.1089 0
-996.244 -13.0872 0
-994.517 -12.0818 0
-992.784 -11.0887 0
-991.044 -10.1121 0
-989.3 -9.14961 0
-987.551 -8.20395 0
-985.797 -7.27535 0
-984.04 -6.36491 0
-982.279 -5.47038 0
-980.514 -4.59179 0
-978.744 -3.73437 0
-976.969 -2.89509 0
-975.194 -2.07504 0
-973.415 -1.27509 0
-971.634 -0.489871 0
-969.85 0.273207 0
-968.064 1.01723 0
-966.275 1.74055 0
-964.485 2.4421 0
-962.691 3.12398 0
-960.897 3.7863 0
-959.1 4.42481 0
-957.303 5.04279 0
-955.505 5.63984 0
-953.708 6.22055 0
-951.907 6.779 0
-950.108 7.31113 0
-948.306 7.82412 0
-946.507 8.32062 0
-944.708 8.79563 0
-942.906 9.25025 0
-941.107 9.68175 0
-939.303 10.0939 0
-937.504 10.4878 0
-935.703 10.8596 0
-933.907 11.2087 0
-932.108 11.5393 0
-930.31 11.8499 0
-928.514 12.1405 0
-926.721 12.4149 0
-924.928 12.67 0
-923.135 12.9053 0
-921.346 13.1189 0
-919.556 13.3174 0
-917.77 13.4972 0
-915.983 13.6589 0
-914.199 13.8026 0
-912.417 13.9278 0
-910.636 14.0359 0
-908.858 14.128 0
-907.081 14.2034 0
-905.309 14.2609 0
-903.537 14.3026 0
-901.765 14.3294 0
-899.999 14.3397 0
-898.235 14.3357 0
-896.472 14.3179 0
-894.71 14.2836 0
-892.955 14.2387 0
-891.197 14.182 0
-889.442 14.1069 0
-887.693 14.0191 0
-885.947 13.9221 0
-884.202 13.8118 0
-882.461 13.6871 0
-880.718 13.5503 0
-878.979 13.402 0
-877.245 13.2432 0
-875.512 13.0762 0
-873.781 12.9011 0
-872.055 12.7118 0
-870.33 12.5122 0
-868.607 12.3066 0
-866.888 12.0927 0
-865.171 11.8663 0
-863.455 11.6326 0
-861.743 11.3922 0
-860.032 11.1427 0
-858.325 10.8892 0
-856.621 10.6289 0
-854.919 10.361 0
-853.219 10.0851 0
-851.521 9.80622 0
-849.826 9.52244 0
-848.135 9.23296 0
-846.446 8.94083 0
-844.758 8.64192 0
-843.074 8.33852 0
-841.391 8.0277 0
-839.71 7.71755 0
-838.032 7.40624 0
-836.359 7.08968 0
-834.684 6.77181 0
-833.013 6.44948 0
-831.344 6.12653 0
-829.677 5.80046 0
-828.012 5.47714 0
-826.347 5.14941 0
-824.685 4.8208 0
-823.025 4.4915 0
-821.368 4.16114 0
-819.712 3.83184 0
-818.058 3.50212 0
-816.406 3.1715 0
-814.756 2.84128 0
-813.107 2.51155 0
-811.459 2.18495 0
-809.815 1.86197 0
-808.172 1.53823 0
-806.53 1.213 0
-804.891 0.890845 0
-803.249 0.572647 0
-801.612 0.259816 0
-799.974 -0.0552148 0
-798.338 -0.36553 0
-796.704 -0.675252 0
-795.07 -0.981315 0
-793.44 -1.28519 0
-791.811 -1.58425 0
-790.182 -1.88037 0
-788.555 -2.17072 0
-786.927 -2.46241 0
-785.301 -2.74976 0
-783.675 -3.03002 0
-782.05 -3.30902 0
-780.427 -3.58349 0
-778.804 -3.85306 0
-777.184 -4.12184 0
-775.563 -4.38383 0
-773.942 -4.63971 0
-772.321 -4.8886 0
-770.701 -5.13407 0
-769.083 -5.37822 0
-767.466 -5.61839 0
-765.847 -5.85181 0
-764.229 -6.07662 0
-762.612 -6.29925 0
-760.994 -6.51982 0
-759.376 -6.73579 0
-757.763 -6.94401 0
-756.148 -7.14542 0
-754.535 -7.34108 0
-752.922 -7.53496 0
-751.308 -7.72645 0
-749.69 -7.90755 0
-748.075 -8.08553 0
-746.463 -8.25705 0
-744.85 -8.42634 0
-743.237 -8.58667 0
-741.625 -8.74255 0
-740.013 -8.8953 0
-738.398 -9.0401 0
-736.783 -9.17675 0
-735.173 -9.31509 0
-733.559 -9.4432 0
-731.947 -9.56814 0
-730.333 -9.68816 0
-728.72 -9.80136 0
-727.104 -9.91107 0
-725.489 -10.0164 0
-723.875 -10.1178 0
-722.26 -10.2117 0
-720.644 -10.2962 0
-719.03 -10.3797 0
-717.413 -10.464 0
-715.797 -10.5355 0
-714.182 -10.6037 0
-712.567 -10.6687 0
-710.951 -10.7282 0
-709.335 -10.783 0
-707.717 -10.8336 0
-706.101 -10.8812 0
-704.484 -10.9228 0
-702.864 -10.9613 0
-701.246 -10.9961 0
-699.625 -11.0229 0
-698.005 -11.05 0
-696.381 -11.0729 0
-694.763 -11.089 0
-693.139 -11.1032 0
-691.517 -11.115 0
-689.895 -11.1185 0
-688.271 -11.1222 0
-686.646 -11.1203 0
-685.021 -11.1128 0
-683.398 -11.1062 0
-681.771 -11.0933 0
-680.143 -11.0792 0
-678.517 -11.0579 0
-676.89 -11.0347 0
-675.262 -11.0127 0
-673.632 -10.9863 0
-672.003 -10.9586 0
-670.374 -10.9253 0
-668.74 -10.8892 0
-667.111 -10.849 0
-665.48 -10.8099 0
-663.85 -10.7643 0
-662.216 -10.7186 0
-660.584 -10.6735 0
-658.951 -10.6193 0
-657.318 -10.5722 0
-655.678 -10.5163 0
-654.045 -10.4585 0
-652.409 -10.3992 0
-650.769 -10.3415 0
-649.135 -10.2817 0
-647.497 -10.2153 0
-645.859 -10.1498 0
-644.219 -10.0837 0
-642.581 -10.017 0
-640.94 -9.94751 0
-639.299 -9.87784 0
-637.655 -9.8046 0
-636.017 -9.73008 0
-634.375 -9.65663 0
-632.731 -9.58422 0
-631.087 -9.50854 0
-629.443 -9.43299 0
-627.8 -9.35545 0
-626.153 -9.2726 0
-624.508 -9.19884 0
-622.861 -9.1156 0
-621.215 -9.03837 0
-619.569 -8.95844 0
-617.921 -8.87971 0
-616.273 -8.79627 0
-614.626 -8.71626 0
-612.973 -8.6323 0
-611.327 -8.54989 0
-609.679 -8.47098 0
-608.026 -8.3891 0
-606.375 -8.30722 0
-604.724 -8.22374 0
-603.071 -8.14251 0
-601.42 -8.05962 0
-599.767 -7.98486 0
-598.111 -7.90434 0
-596.458 -7.82373 0
-594.803 -7.74283 0
-593.148 -7.66559 0
-591.493 -7.58742 0
-589.84 -7.5089 0
-588.186 -7.43189 0
-586.53 -7.35671 0
-584.875 -7.28033 0
-583.217 -7.20535 0
-581.563 -7.13037 0
-579.907 -7.06178 0
-578.25 -6.98987 0
-576.592 -6.91883 0
-574.933 -6.84857 0
-573.277 -6.77895 0
-571.618 -6.7106 0
-569.959 -6.64219 0
-568.299 -6.57534 0
-566.642 -6.51199 0
-564.982 -6.44683 0
-563.321 -6.38348 0
-561.666 -6.32334 0
-560.006 -6.26272 0
-558.348 -6.20704 0
-556.685 -6.14549 0
-555.025 -6.09382 0
-553.364 -6.0382 0
-551.705 -5.98526 0
-550.046 -5.93131 0
-548.387 -5.87868 0
-546.727 -5.83244 0
-545.068 -5.77956 0
-543.409 -5.73429 0
-541.747 -5.68782 0
-540.085 -5.64561 0
-538.424 -5.60175 0
-536.766 -5.56267 0
-535.104 -5.52192 0
-533.443 -5.4843 0
-531.78 -5.44645 0
-530.116 -5.40497 0
-528.459 -5.37473 0
-526.8 -5.33797 0
-525.137 -5.30402 0
-523.478 -5.27955 0
-521.814 -5.24947 0
-520.152 -5.2198 0
-518.493 -5.19957 0
-516.83 -5.17298 0
-515.171 -5.15144 0
-513.509 -5.12508 0
-511.849 -5.10636 0
-510.191 -5.08464 0
-508.528 -5.06624 0
-506.865 -5.04838 0
-505.204 -5.03539 0
-503.544 -5.02082 0
-501.883 -5.00775 0
-500.222 -4.99376 0
-498.563 -4.98639 0
-496.901 -4.981 0
-495.24 -4.9799 0
-493.578 -4.97431 0
-491.919 -4.96939 0
-490.258 -4.96733 0
-488.599 -4.96414 0
-486.94 -4.96678 0
-485.281 -4.96774 0
-483.62 -4.97143 0
-481.961 -4.97251 0
-480.301 -4.97597 0
-478.64 -4.97908 0
-476.98 -4.98769 0
-475.322 -4.99955 0
-473.664 -5.01312 0
-472.002 -5.02351 0
-470.344 -5.03742 0
-468.686 -5.05358 0
-467.025 -5.06951 0
-465.366 -5.08475 0
-463.709 -5.10156 0
-462.043 -5.11859 0
-460.386 -5.13579 0
-458.731 -5.16015 0
-457.074 -5.17902 0
-455.416 -5.20134 0
-453.761 -5.22688 0
-452.102 -5.25082 0
-450.442 -5.27496 0
-448.785 -5.30198 0
-447.128 -5.32577 0
-445.47 -5.35484 0
-443.813 -5.38396 0
-442.159 -5.41256 0
-440.501 -5.44603 0
-438.845 -5.47015 0
-437.192 -5.50179 0
-435.537 -5.53751 0
-433.879 -5.57162 0
-432.225 -5.60173 0
-430.569 -5.63629 0
-428.915 -5.67105 0
-427.263 -5.70636 0
-425.609 -5.74544 0
-423.952 -5.78152 0
-422.297 -5.8218 0
-420.64 -5.85675 0
-418.986 -5.89315 0
-417.333 -5.93141 0
-415.674 -5.97277 0
-414.023 -6.01057 0
-412.372 -6.04498 0
-410.718 -6.08649 0
-409.064 -6.12267 0
-407.411 -6.16064 0
-405.758 -6.20395 0
-404.104 -6.24369 0
-402.45 -6.28652 0
-400.794 -6.32431 0
-399.143 -6.36609 0
-397.491 -6.41024 0
-395.839 -6.45278 0
-394.189 -6.49834 0
-392.538 -6.53765 0
-390.887 -6.57592 0
-389.237 -6.62172 0
-387.581 -6.66354 0
-385.931 -6.70802 0
-384.28 -6.74914 0
-382.629 -6.79024 0
-380.978 -6.83179 0
-379.326 -6.87661 0
-377.676 -6.91996 0
-376.027 -6.9601 0
-374.377 -7.00188 0
-372.723 -7.04819 0
-371.073 -7.08916 0
-369.424 -7.13322 0
-367.773 -7.17587 0
-366.123 -7.21647 0
-364.473 -7.25938 0
-362.823 -7.30201 0
-361.173 -7.34968 0
-359.525 -7.38905 0
-357.877 -7.42993 0
-356.226 -7.47056 0
-354.58 -7.51312 0
-352.932 -7.55497 0
-351.282 -7.59648 0
-349.629 -7.63559 0
-347.98 -7.67149 0
-346.334 -7.71251 0
-344.686 -7.74986 0
-343.039 -7.78859 0
-341.389 -7.82771 0
-339.742 -7.86456 0
-338.094 -7.9038 0
-336.447 -7.94556 0
-334.798 -7.98377 0
-333.149 -8.02252 0
-331.503 -8.06186 0
-329.854 -8.09584 0
-328.207 -8.13076 0
-326.56 -8.16487 0
-324.913 -8.20227 0
-323.266 -8.23704 0
-321.618 -8.26901 0
-319.97 -8.3042 0
-318.322 -8.33536 0
-316.677 -8.36987 0
-315.028 -8.40083 0
-313.384 -8.43172 0
-311.735 -8.46035 0
-310.085 -8.49162 0
-308.439 -8.5213 0
-306.792 -8.55261 0
-305.145 -8.58199 0
-303.501 -8.60884 0
-301.854 -8.63968 0
-300.204 -8.66632 0
-298.561 -8.69435 0
-296.911 -8.71818 0
-295.265 -8.74837 0
-293.616 -8.77663 0
-291.972 -8.79488 0
-290.326 -8.82286 0
-288.68 -8.84533 0
-287.035 -8.86877 0
-285.39 -8.89077 0
-283.743 -8.91288 0
-282.095 -8.93407 0
-280.449 -8.95637 0
-278.802 -8.97832 0
-277.156 -8.99679 0
-275.507 -9.01592 0
-273.858 -9.03578 0
-272.211 -9.05753 0
-270.564 -9.07607 0
-268.919 -9.0934 0
-267.271 -9.10903 0
-265.625 -9.12536 0
-263.978 -9.14194 0
-262.332 -9.15841 0
-260.685 -9.17596 0
-259.038 -9.18942 0
-257.391 -9.20694 0
-255.74 -9.22154 0
-254.095 -9.23166 0
-252.449 -9.24299 0
-250.801 -9.25716 0
-249.155 -9.26612 0
-247.508 -9.27553 0
-245.862 -9.28604 0
-244.212 -9.29571 0
-242.565 -9.30216 0
-240.914 -9.31149 0
-239.269 -9.32011 0
-237.624 -9.32633 0
-235.978 -9.33755 0
-234.33 -9.34362 0
-232.683 -9.34779 0
-231.033 -9.357 0
-229.386 -9.36464 0
-227.739 -9.37221 0
-226.094 -9.37521 0
-224.445 -9.38138 0
-222.799 -9.38293 0
-221.15 -9.38757 0
-219.501 -9.38877 0
-217.854 -9.3934 0
-216.206 -9.39357 0
-214.558 -9.39531 0
-212.912 -9.4006 0
-211.263 -9.39945 0
-209.615 -9.4004 0
-207.967 -9.39946 0
-206.317 -9.39712 0
-204.669 -9.39929 0
-203.02 -9.39914 0
-201.37 -9.39938 0
-199.721 -9.39556 0
-198.074 -9.39559 0
-196.426 -9.3974 0
-194.775 -9.3913 0
-193.128 -9.38942 0
-191.48 -9.38679 0
-189.832 -9.38281 0
-188.183 -9.37802 0
-186.535 -9.37233 0
-184.885 -9.37067 0
-183.235 -9.36861 0
-181.587 -9.36166 0
-179.936 -9.35552 0
-178.286 -9.35324 0
-176.64 -9.3472 0
-174.991 -9.34221 0
-173.342 -9.33254 0
-171.693 -9.32427 0
-170.046 -9.31734 0
-168.395 -9.31124 0
-166.747 -9.30202 0
-165.1 -9.29863 0
-163.452 -9.28893 0
-161.803 -9.28319 0
-160.153 -9.27445 0
-158.502 -9.26661 0
-156.852 -9.25642 0
-155.202 -9.24803 0
-153.555 -9.24049 0
-151.907 -9.23342 0
-150.256 -9.22493 0
-148.604 -9.2169 0
-146.957 -9.2094 0
-145.307 -9.20144 0
-143.656 -9.19165 0
-142.005 -9.18145 0
-140.354 -9.17291 0
-138.706 -9.16274 0
-137.056 -9.15213 0
-135.406 -9.14306 0
-133.754 -9.13301 0
-132.105 -9.12519 0
-130.455 -9.11224 0
-128.804 -9.10385 0
-127.152 -9.09097 0
-125.502 -9.08239 0
-123.851 -9.07205 0
-122.2 -9.06584 0
-120.549 -9.0574 0
-118.899 -9.04459 0
-117.249 -9.03584 0
-115.597 -9.02458 0
-113.947 -9.0165 0
-112.296 -9.0038 0
-110.646 -8.9945 0
-108.996 -8.9886 0
-107.344 -8.97894 0
-105.694 -8.97001 0
-104.043 -8.96031 0
-102.392 -8.95287 0
-100.741 -8.94351 0
-99.0915 -8.93264 0
-97.4415 -8.92234 0
-95.7884 -8.91257 0
-94.1355 -8.90142 0
-92.484 -8.89352 0
-90.8339 -8.88313 0
-89.1826 -8.874 0
-87.5331 -8.86857 0
-85.8816 -8.85925 0
-84.2287 -8.8503 0
-82.5775 -8.84123 0
-80.9279 -8.83109 0
-79.2756 -8.82169 0
-77.6245 -8.81562 0
-75.972 -8.80517 0
-74.3237 -8.79751 0
-72.6712 -8.78817 0
-71.0213 -8.78239 0
-69.3721 -8.77407 0
-67.7222 -8.76795 0
-66.0689 -8.75903 0
-64.417 -8.75296 0
-62.7653 -8.74105 0
-61.1153 -8.73525 0
-59.4645 -8.73013 0
-57.8114 -8.72363 0
-56.1602 -8.71799 0
-54.5081 -8.70967 0
-52.8551 -8.70332 0
-51.2044 -8.69574 0
-49.5528 -8.68967 0
-47.9012 -8.6868 0
-46.2502 -8.68349 0
-44.6001 -8.67519 0
-42.9511 -8.66862 0
-41.299 -8.66325 0
-39.6463 -8.65897 0
-37.9937 -8.65106 0
-36.3418 -8.6489 0
-34.69 -8.64591 0
-33.0376 -8.63865 0
-31.3852 -8.63697 0
-29.7331 -8.63328 0
-28.0805 -8.62953 0
-26.4274 -8.62384 0
-24.7759 -8.62262 0
-23.1228 -8.61727 0
-21.4709 -8.61058 0
-19.8208 -8.60836 0
-18.1683 -8.60798 0
-16.5173 -8.60426 0
-14.867 -8.60176 0
-13.2168 -8.59998 0
-11.5638 -8.59829 0
-9.91123 -8.59792 0
-8.25848 -8.59912 0
-6.60711 -8.59666 0
-4.95731 -8.59376 0
-3.30513 -8.59491 0
-1.65344 -8.59615 0
0 -8.59302 0
-1106.51 155.657 0
-1106.09 145.104 0
-1105.78 134.909 0
-1105.43 124.975 0
-1105.05 115.314 0
-1104.63 105.945 0
-1104.2 96.8892 0
-1103.75 88.1571 0
-1103.28 79.754 0
-1102.78 71.6907 0
-1102.27 63.9762 0
-1101.75 56.6151 0
-1101.21 49.6012 0
-1100.66 42.9312 0
-1100.1 36.596 0
-1099.52 30.5884 0
-1098.93 24.8973 0
-1098.33 19.5032 0
-1097.72 14.3967 0
-1097.09 9.55623 0
-1096.44 4.96831 0
-1095.79 0.619497 0
-1095.11 -3.4909 0
-1094.42 -7.39141 0
-1093.71 -11.0843 0
-1092.99 -14.5821 0
-1092.26 -17.8922 0
-1091.5 -21.025 0
-1090.74 -23.9882 0
-1089.96 -26.7841 0
-1089.16 -29.4186 0
-1088.35 -31.897 0
-1087.53 -34.2254 0
-1086.69 -36.4084 0
-1085.84 -38.448 0
-1084.97 -40.3527 0
-1084.09 -42.1177 0
-1083.19 -43.7508 0
-1082.28 -45.2526 0
-1081.36 -46.6296 0
-1080.41 -47.8848 0
-1079.45 -49.0229 0
-1078.48 -50.0431 0
-1077.49 -50.9505 0
-1076.48 -51.7493 0
-1075.46 -52.4395 0
-1074.42 -53.0273 0
-1073.37 -53.5178 0
-1072.29 -53.9134 0
-1071.2 -54.2133 0
-1070.1 -54.4273 0
-1068.97 -54.554 0
-1067.83 -54.5996 0
-1066.67 -54.5667 0
-1065.5 -54.4593 0
-1064.31 -54.2756 0
-1063.1 -54.0241 0
-1061.88 -53.7062 0
-1060.64 -53.3252 0
-1059.38 -52.8854 0
-1058.11 -52.3876 0
-1056.82 -51.8378 0
-1055.52 -51.2373 0
-1054.2 -50.588 0
-1052.86 -49.8919 0
-1051.52 -49.1543 0
-1050.15 -48.3756 0
-1048.78 -47.5593 0
-1047.39 -46.7083 0
-1045.98 -45.8232 0
-1044.56 -44.9069 0
-1043.13 -43.9682 0
-1041.68 -42.9979 0
-1040.22 -42.0063 0
-1038.75 -40.9915 0
-1037.27 -39.9593 0
-1035.77 -38.9094 0
-1034.26 -37.8393 0
-1032.74 -36.7587 0
-1031.21 -35.6666 0
-1029.67 -34.5617 0
-1028.12 -33.4506 0
-1026.55 -32.3306 0
-1024.98 -31.2047 0
-1023.4 -30.0746 0
-1021.81 -28.9395 0
-1020.2 -27.8038 0
-1018.59 -26.6704 0
-1016.97 -25.5349 0
-1015.34 -24.402 0
-1013.71 -23.2746 0
-1012.06 -22.147 0
-1010.41 -21.0289 0
-1008.75 -19.9188 0
-1007.09 -18.814 0
-1005.41 -17.7179 0
-1003.73 -16.6307 0
-1002.05 -15.5555 0
-1000.35 -14.4912 0
-998.654 -13.4378 0
-996.953 -12.3983 0
-995.245 -11.3728 0
-993.529 -10.3606 0
-991.808 -9.36126 0
-990.082 -8.38169 0
-988.355 -7.41339 0
-986.622 -6.46475 0
-984.886 -5.53023 0
-983.145 -4.6153 0
-981.4 -3.7167 0