<?xml version="1.0"?>
<VTKFile type="StructuredGrid"  version="0.1" byte_order="LittleEndian" compressor="vtkZLibDataCompressor">
  <StructuredGrid WholeExtent="0 700 0 30 0 0">
    <Piece Extent="0 700 0 30 0 0">
      <PointData Vectors="Velocity">
        <DataArray type="Float32" Name="Velocity" NumberOfComponents="3" format="ascii">
-1094.77 87.2775 0
-1094.89 79.2064 0
-1095.07 71.3073 0
-1095.28 63.6846 0
-1095.49 56.3699 0
-1095.67 49.3301 0
-1095.84 42.5255 0
-1096.03 35.9923 0
-1096.25 29.7934 0
-1096.46 23.9582 0
-1096.65 18.4912 0
-1096.82 13.391 0
-1096.97 8.65081 0
-1097.09 4.26085 0
-1097.16 0.206812 0
-1097.19 -3.52769 0
-1097.17 -6.96068 0
-1097.09 -10.1099 0
-1096.96 -12.9947 0
-1096.76 -15.6331 0
-1096.52 -18.0416 0
-1096.21 -20.2362 0
-1095.86 -22.2318 0
-1095.45 -24.042 0
-1094.99 -25.679 0
-1094.49 -27.1537 0
-1093.94 -28.4774 0
-1093.35 -29.6589 0
-1092.73 -30.7067 0
-1092.06 -31.6298 0
-1091.36 -32.4328 0
-1090.63 -33.1229 0
-1089.86 -33.7075 0
-1089.06 -34.1899 0
-1088.24 -34.5764 0
-1087.38 -34.8717 0
-1086.49 -35.0799 0
-1085.57 -35.2042 0
-1084.62 -35.2501 0
-1083.65 -35.2218 0
-1082.65 -35.1221 0
-1081.61 -34.9547 0
-1080.56 -34.7238 0
-1079.47 -34.4336 0
-1078.35 -34.0863 0
-1077.21 -33.6873 0
-1076.04 -33.2389 0
-1074.85 -32.7445 0
-1073.63 -32.2084 0
-1072.38 -31.6328 0
-1071.11 -31.022 0
-1069.81 -30.3781 0
-1068.49 -29.7044 0
-1067.14 -29.0036 0
-1065.77 -28.2801 0
-1064.38 -27.5338 0
-1062.97 -26.7702 0
-1061.54 -25.9907 0
-1060.08 -25.1972 0
-1058.61 -24.3927 0
-1057.12 -23.5797 0
-1055.61 -22.7596 0
-1054.08 -21.9349 0
-1052.53 -21.1074 0
-1050.97 -20.2794 0
-1049.39 -19.4519 0
-1047.79 -18.6275 0
-1046.19 -17.8069 0
-1044.56 -16.9917 0
-1042.93 -16.1842 0
-1041.28 -15.3847 0
-1039.62 -14.595 0
-1037.94 -13.816 0
-1036.26 -13.0493 0
-1034.57 -12.2956 0
-1032.86 -11.5554 0
-1031.15 -10.8299 0
-1029.43 -10.1195 0
-1027.7 -9.42638 0
-1025.96 -8.75033 0
-1024.22 -8.09094 0
-1022.47 -7.44922 0
-1020.71 -6.82754 0
-1018.95 -6.22525 0
-1017.18 -5.64196 0
-1015.41 -5.07889 0
-1013.63 -4.53571 0
-1011.85 -4.01361 0
-1010.06 -3.512 0
-1008.27 -3.03143 0
-1006.48 -2.57154 0
-1004.69 -2.13266 0
-1002.9 -1.71468 0
-1001.1 -1.31817 0
-999.304 -0.942305 0
-997.505 -0.587877 0
-995.707 -0.254988 0
-993.908 0.0586128 0
-992.109 0.35121 0
-990.311 0.623255 0
-988.513 0.875624 0
-986.715 1.10699 0
-984.919 1.31924 0
-983.124 1.51243 0
-981.33 1.68648 0
-979.537 1.84086 0
-977.746 1.97726 0
-975.957 2.0952 0
-974.171 2.19548 0
-972.387 2.27807 0
-970.606 2.34369 0
-968.827 2.39293 0
-967.051 2.4263 0
-965.278 2.44362 0
-963.508 2.44598 0
-961.741 2.43345 0
-959.978 2.40713 0
-958.217 2.36588 0
-956.461 2.31254 0
-954.707 2.24485 0
-952.957 2.16514 0
-951.211 2.07426 0
-949.469 1.97151 0
-947.73 1.85765 0
-945.994 1.73345 0
-944.263 1.59934 0
-942.535 1.4562 0
-940.812 1.30283 0
-939.091 1.14142 0
-937.375 0.97253 0
-935.662 0.795984 0
-933.953 0.612777 0
-932.248 0.422985 0
-930.547 0.226618 0
-928.849 0.0242504 0
-927.155 -0.181568 0
-925.464 -0.393289 0
-923.778 -0.60928 0
-922.094 -0.828927 0
-920.415 -1.05166 0
-918.738 -1.27761 0
-917.065 -1.50586 0
-915.397 -1.73679 0
-913.73 -1.96852 0
-912.068 -2.20209 0
-910.408 -2.43598 0
-908.751 -2.67116 0
-907.096 -2.90687 0
-905.445 -3.14203 0
-903.797 -3.37643 0
-902.152 -3.60956 0
-900.508 -3.84278 0
-898.868 -4.07364 0
-897.231 -4.30342 0
-895.595 -4.5302 0
-893.962 -4.75584 0
-892.332 -4.97891 0
-890.703 -5.19759 0
-889.075 -5.41544 0
-887.451 -5.62841 0
-885.828 -5.83915 0
-884.207 -6.04538 0
-882.589 -6.24775 0
-880.971 -6.44572 0
-879.355 -6.6407 0
-877.742 -6.83004 0
-876.129 -7.0157 0
-874.517 -7.19645 0
-872.907 -7.37097 0
-871.297 -7.54274 0
-869.689 -7.70748 0
-868.081 -7.86832 0
-866.475 -8.02241 0
-864.869 -8.17277 0
-863.264 -8.31763 0
-861.66 -8.45633 0
-860.057 -8.58943 0
-858.453 -8.71741 0
-856.851 -8.83914 0
-855.249 -8.95506 0
-853.647 -9.06542 0
-852.044 -9.17142 0
-850.443 -9.27152 0
-848.842 -9.36488 0
-847.241 -9.45218 0
-845.64 -9.53581 0
-844.038 -9.61291 0
-842.436 -9.68427 0
-840.835 -9.75039 0
-839.233 -9.81137 0
-837.63 -9.86666 0
-836.027 -9.91673 0
-834.425 -9.96017 0
-832.822 -9.99855 0
-831.219 -10.0335 0
-829.615 -10.0617 0
-828.01 -10.0852 0
-826.405 -10.1041 0
-824.799 -10.1189 0
-823.192 -10.1281 0
-821.585 -10.1331 0
-819.978 -10.1335 0
-818.369 -10.1296 0
-816.76 -10.1217 0
-815.149 -10.1083 0
-813.539 -10.0909 0
-811.926 -10.0708 0
-810.313 -10.0452 0
-808.7 -10.0172 0
-807.086 -9.98526 0
-805.47 -9.95012 0
-803.855 -9.91067 0
-802.239 -9.86773 0
-800.621 -9.82292 0
-799.001 -9.77378 0
-797.382 -9.72329 0
-795.76 -9.66907 0
-794.139 -9.61214 0
-792.517 -9.5528 0
-790.894 -9.49098 0
-789.27 -9.4272 0
-787.645 -9.35982 0
-786.017 -9.29131 0
-784.39 -9.22263 0
-782.762 -9.15044 0
-781.133 -9.07722 0
-779.502 -9.00179 0
-777.871 -8.92416 0
-776.239 -8.84674 0
-774.607 -8.76726 0
-772.974 -8.68741 0
-771.34 -8.60627 0
-769.704 -8.52331 0
-768.068 -8.44107 0
-766.432 -8.35682 0
-764.794 -8.27259 0
-763.156 -8.18735 0
-761.516 -8.10129 0
-759.874 -8.01594 0
-758.234 -7.93128 0
-756.592 -7.8446 0
-754.95 -7.75932 0
-753.306 -7.67359 0
-751.662 -7.58867 0
-750.017 -7.50137 0
-748.372 -7.41777 0
-746.726 -7.33274 0
-745.079 -7.24752 0
-743.431 -7.1642 0
-741.782 -7.08172 0
-740.135 -6.99961 0
-738.484 -6.91734 0
-736.834 -6.83763 0
-735.184 -6.75722 0
-733.533 -6.67865 0
-731.882 -6.60167 0
-730.23 -6.52568 0
-728.578 -6.4501 0
-726.925 -6.37582 0
-725.272 -6.30217 0
-723.619 -6.2296 0
-721.966 -6.15975 0
-720.312 -6.09113 0
-718.657 -6.02307 0
-717.002 -5.958 0
-715.347 -5.89398 0
-713.693 -5.82891 0
-712.036 -5.7673 0
-710.379 -5.70769 0
-708.724 -5.64965 0
-707.068 -5.59321 0
-705.411 -5.53801 0
-703.754 -5.48299 0
-702.096 -5.43035 0
-700.441 -5.38053 0
-698.784 -5.33254 0
-697.127 -5.28639 0
-695.468 -5.24243 0
-693.812 -5.19913 0
-692.154 -5.15562 0
-690.497 -5.11639 0
-688.839 -5.07869 0
-687.182 -5.04301 0
-685.526 -5.00639 0
-683.867 -4.97418 0
-682.209 -4.9444 0
-680.552 -4.91501 0
-678.893 -4.88748 0
-677.235 -4.86212 0
-675.579 -4.83655 0
-673.921 -4.81293 0
-672.264 -4.79163 0
-670.607 -4.77341 0
-668.951 -4.75628 0
-667.294 -4.73971 0
-665.637 -4.72425 0
-663.981 -4.71116 0
-662.324 -4.70087 0
-660.67 -4.69009 0
-659.014 -4.68254 0
-657.357 -4.67382 0
-655.702 -4.66824 0
-654.048 -4.66412 0
-652.393 -4.66219 0
-650.738 -4.66132 0
-649.083 -4.66119 0
-647.429 -4.66069 0
-645.774 -4.66349 0
-644.121 -4.66803 0
-642.467 -4.67173 0
-640.814 -4.67678 0
-639.162 -4.68387 0
-637.508 -4.6919 0
-635.855 -4.70126 0
-634.203 -4.71153 0
-632.55 -4.72166 0
-630.898 -4.73418 0
-629.246 -4.74718 0
-627.595 -4.76342 0
-625.944 -4.77887 0
-624.293 -4.79118 0
-622.642 -4.80805 0
-620.991 -4.82428 0
-619.341 -4.8416 0
-617.691 -4.86142 0
-616.041 -4.8801 0
-614.391 -4.89903 0
-612.743 -4.92031 0
-611.094 -4.94169 0
-609.447 -4.96143 0
-607.799 -4.98341 0
-606.151 -5.00597 0
-604.503 -5.02948 0
-602.856 -5.05197 0
-601.209 -5.07576 0
-599.562 -5.09771 0
-597.915 -5.12117 0
-596.269 -5.14665 0
-594.621 -5.1711 0
-592.976 -5.19532 0
-591.33 -5.22182 0
-589.685 -5.24622 0
-588.039 -5.27192 0
-586.395 -5.29901 0
-584.75 -5.32344 0
-583.106 -5.34835 0
-581.46 -5.37543 0
-579.817 -5.40099 0
-578.171 -5.42764 0
-576.527 -5.45279 0
-574.884 -5.48027 0
-573.24 -5.5033 0
-571.596 -5.53102 0
-569.954 -5.55617 0
-568.311 -5.58151 0
-566.667 -5.60596 0
-565.025 -5.63034 0
-563.381 -5.65477 0
-561.738 -5.67824 0
-560.096 -5.70192 0
-558.456 -5.72717 0
-556.813 -5.75115 0
-555.171 -5.77593 0
-553.53 -5.79811 0
-551.889 -5.8197 0
-550.248 -5.84293 0
-548.607 -5.86464 0
-546.967 -5.88748 0
-545.324 -5.90646 0
-543.685 -5.9284 0
-542.044 -5.94977 0
-540.402 -5.97103 0
-538.761 -5.98981 0
-537.119 -6.00928 0
-535.478 -6.02677 0
-533.837 -6.04535 0
-532.197 -6.06479 0
-530.559 -6.08385 0
-528.918 -6.10092 0
-527.279 -6.11832 0
-525.637 -6.13422 0
-523.999 -6.14764 0
-522.36 -6.16223 0
-520.72 -6.17553 0
-519.079 -6.19372 0
-517.439 -6.20767 0
-515.801 -6.2215 0
-514.16 -6.23413 0
-512.52 -6.24665 0
-510.881 -6.25871 0
-509.241 -6.27249 0
-507.6 -6.28276 0
-505.96 -6.29149 0
-504.32 -6.3025 0
-502.679 -6.31437 0
-501.038 -6.32426 0
-499.398 -6.33191 0
-497.758 -6.34136 0
-496.119 -6.34617 0
-494.478 -6.35535 0
-492.837 -6.36511 0
-491.197 -6.3721 0
-489.558 -6.37695 0
-487.919 -6.38138 0
-486.277 -6.38752 0
-484.637 -6.39319 0
-482.998 -6.39708 0
-481.353 -6.40254 0
-479.716 -6.40781 0
-478.076 -6.40856 0
-476.436 -6.41469 0
-474.796 -6.41618 0
-473.155 -6.41966 0
-471.515 -6.42287 0
-469.875 -6.42346 0
-468.234 -6.42485 0
-466.592 -6.42631 0
-464.952 -6.4272 0
-463.311 -6.42687 0
-461.668 -6.42498 0
-460.027 -6.42575 0
-458.385 -6.42736 0
-456.746 -6.42448 0
-455.104 -6.425 0
-453.462 -6.42437 0
-451.82 -6.42506 0
-450.18 -6.42171 0
-448.539 -6.4212 0
-446.897 -6.4204 0
-445.255 -6.41662 0
-443.612 -6.41336 0
-441.973 -6.41329 0
-440.328 -6.41087 0
-438.685 -6.40853 0
-437.045 -6.40873 0
-435.404 -6.40507 0
-433.761 -6.39876 0
-432.119 -6.39747 0
-430.478 -6.39269 0
-428.835 -6.39044 0
-427.195 -6.38544 0
-425.551 -6.37887 0
-423.908 -6.3724 0
-422.263 -6.36969 0
-420.622 -6.36698 0
-418.979 -6.36279 0
-417.336 -6.35825 0
-415.692 -6.35363 0
-414.05 -6.35035 0
-412.408 -6.34445 0
-410.766 -6.34045 0
-409.121 -6.33522 0
-407.477 -6.32972 0
-405.833 -6.32776 0
-404.19 -6.31936 0
-402.544 -6.3163 0
-400.902 -6.31539 0
-399.257 -6.30807 0
-397.614 -6.30555 0
-395.972 -6.29983 0
-394.327 -6.294 0
-392.684 -6.29071 0
-391.042 -6.2859 0
-389.397 -6.28212 0
-387.756 -6.27617 0
-386.111 -6.2732 0
-384.469 -6.26761 0
-382.825 -6.26407 0
-381.178 -6.26034 0
-379.535 -6.25426 0
-377.889 -6.25168 0
-376.245 -6.24858 0
-374.601 -6.24556 0
-372.959 -6.2416 0
-371.311 -6.23473 0
-369.667 -6.23653 0
-368.023 -6.23175 0
-366.381 -6.22919 0
-364.737 -6.22756 0
-363.092 -6.22296 0
-361.45 -6.22043 0
-359.806 -6.21669 0
-358.161 -6.21453 0
-356.517 -6.21306 0
-354.87 -6.21102 0
-353.228 -6.2107 0
-351.582 -6.20742 0
-349.937 -6.203 0
-348.293 -6.20105 0
-346.649 -6.20253 0
-345.005 -6.20246 0
-343.358 -6.20169 0
-341.716 -6.19916 0
-340.07 -6.1979 0
-338.424 -6.19764 0
-336.782 -6.1978 0
-335.138 -6.19876 0
-333.494 -6.201 0
-331.851 -6.19947 0
-330.205 -6.20131 0
-328.56 -6.20058 0
-326.915 -6.20044 0
-325.273 -6.201 0
-323.625 -6.19979 0
-321.982 -6.20219 0
-320.34 -6.20678 0
-318.693 -6.20469 0
-317.048 -6.20336 0
-315.405 -6.20497 0
-313.762 -6.20772 0
-312.118 -6.21222 0
-310.475 -6.21238 0
-308.83 -6.21426 0
-307.185 -6.21667 0
-305.542 -6.21754 0
-303.897 -6.22335 0
-302.254 -6.22595 0
-300.608 -6.2283 0
-298.964 -6.22999 0
-297.323 -6.23358 0
-295.677 -6.23613 0
-294.035 -6.23621 0
-292.389 -6.23915 0
-290.747 -6.24549 0
-289.102 -6.2488 0
-287.456 -6.2536 0
-285.814 -6.2574 0
-284.168 -6.25972 0
-282.521 -6.26308 0
-280.878 -6.26894 0
-279.238 -6.27271 0
-277.592 -6.27702 0
-275.949 -6.28091 0
-274.304 -6.28463 0
-272.66 -6.28977 0
-271.015 -6.29497 0
-269.373 -6.2977 0
-267.73 -6.30282 0
-266.085 -6.30475 0
-264.443 -6.31103 0
-262.8 -6.31574 0
-261.156 -6.31799 0
-259.51 -6.32211 0
-257.868 -6.3284 0
-256.227 -6.33462 0
-254.581 -6.34058 0
-252.938 -6.3448 0
-251.294 -6.34929 0
-249.652 -6.35782 0
-248.011 -6.36553 0
-246.367 -6.37031 0
-244.723 -6.37388 0
-243.08 -6.3778 0
-241.436 -6.38205 0
-239.792 -6.38547 0
-238.148 -6.3949 0
-236.503 -6.40062 0
-234.859 -6.40321 0
-233.218 -6.40955 0
-231.575 -6.4168 0
-229.931 -6.42323 0
-228.29 -6.42678 0
-226.645 -6.43592 0
-225.001 -6.4404 0
-223.357 -6.4459 0
-221.714 -6.45197 0
-220.071 -6.45516 0
-218.428 -6.46127 0
-216.79 -6.46672 0
-215.146 -6.47314 0
-213.5 -6.47931 0
-211.859 -6.48715 0
-210.216 -6.49428 0
-208.573 -6.49776 0
-206.932 -6.50512 0
-205.289 -6.50594 0
-203.645 -6.51259 0
-202.002 -6.51507 0
-200.359 -6.52366 0
-198.717 -6.52731 0
-197.074 -6.5341 0
-195.43 -6.53849 0
-193.787 -6.54374 0
-192.148 -6.55088 0
-190.505 -6.55456 0
-188.862 -6.55876 0
-187.219 -6.56283 0
-185.578 -6.56761 0
-183.934 -6.57395 0
-182.289 -6.57945 0
-180.65 -6.58475 0
-179.004 -6.58912 0
-177.362 -6.59285 0
-175.721 -6.59944 0
-174.079 -6.60395 0
-172.435 -6.60639 0
-170.793 -6.60848 0
-169.151 -6.61495 0
-167.509 -6.62009 0
-165.866 -6.6243 0
-164.225 -6.62932 0
-162.58 -6.63159 0
-160.938 -6.63782 0
-159.296 -6.64333 0
-157.655 -6.64786 0
-156.011 -6.65033 0
-154.367 -6.653 0
-152.724 -6.65706 0
-151.081 -6.66263 0
-149.441 -6.66556 0
-147.8 -6.67096 0
-146.155 -6.6748 0
-144.513 -6.68369 0
-142.87 -6.68389 0
-141.229 -6.68926 0
-139.589 -6.69517 0
-137.945 -6.69472 0
-136.303 -6.69911 0
-134.664 -6.70029 0
-133.022 -6.70354 0
-131.377 -6.70702 0
-129.737 -6.71065 0
-128.097 -6.71745 0
-126.45 -6.71658 0
-124.808 -6.72128 0
-123.166 -6.72699 0
-121.526 -6.7274 0
-119.885 -6.72785 0
-118.244 -6.73072 0
-116.602 -6.7334 0
-114.958 -6.73487 0
-113.313 -6.7379 0
-111.67 -6.74092 0
-110.03 -6.74591 0
-108.386 -6.75098 0
-106.748 -6.75118 0
-105.101 -6.74967 0
-103.461 -6.75535 0
-101.818 -6.75436 0
-100.173 -6.7556 0
-98.5326 -6.75613 0
-96.8888 -6.76097 0
-95.2451 -6.76304 0
-93.605 -6.76385 0
-91.9616 -6.7669 0
-90.3221 -6.76848 0
-88.6791 -6.77028 0
-87.0377 -6.77365 0
-85.3968 -6.77635 0
-83.7524 -6.77578 0
-82.1083 -6.7752 0
-80.469 -6.77978 0
-78.8277 -6.78282 0
-77.1854 -6.78556 0
-75.5417 -6.78572 0
-73.9007 -6.78666 0
-72.2579 -6.78756 0
-70.6138 -6.78727 0
-68.9703 -6.79045 0
-67.3267 -6.78992 0
-65.6879 -6.79061 0
-64.0475 -6.79362 0
-62.4048 -6.79562 0
-60.7615 -6.79757 0
-59.1198 -6.79692 0
-57.4792 -6.79762 0
-55.8348 -6.79732 0
-54.1931 -6.79566 0
-52.5505 -6.7986 0
-50.9087 -6.79752 0
-49.2684 -6.79477 0
-47.6245 -6.79615 0
-45.9807 -6.79605 0
-44.3376 -6.79703 0
-42.6923 -6.79975 0
-41.0542 -6.80146 0
-39.4155 -6.80306 0
-37.7713 -6.8023 0
-36.1314 -6.80183 0
-34.4889 -6.80304 0
-32.8443 -6.80495 0
-31.1993 -6.80317 0
-29.5582 -6.80476 0
-27.9157 -6.80518 0
-26.2749 -6.806 0
-24.6315 -6.80585 0
-22.9899 -6.80688 0
-21.3497 -6.80712 0
-19.7077 -6.80773 0
-18.0652 -6.80906 0
-16.4233 -6.80808 0
-14.7774 -6.80642 0
-13.1375 -6.80775 0
-11.4981 -6.80721 0
-9.85506 -6.80533 0
-8.21161 -6.80399 0
-6.5687 -6.80689 0
-4.92709 -6.80817 0
-3.28293 -6.80451 0
-1.64256 -6.80302 0
0 -6.80304 0
-1102.85 87.437 0
-1102.82 79.3164 0
-1102.78 71.4003 0
-1102.71 63.7697 0
-1102.63 56.4483 0
-1102.59 49.4038 0
-1102.53 42.5972 0
-1102.44 36.0642 0
-1102.3 29.8659 0
-1102.15 24.0334 0
-1101.98 18.5724 0
-1101.79 13.4826 0
-1101.58 8.75896 0
-1101.35 4.39111 0
-1101.09 0.365247 0
-1100.81 -3.33539 0
-1100.49 -6.72983 0
-1100.13 -9.83752 0
-1099.74 -12.679 0
-1099.31 -15.2729 0
-1098.83 -17.6365 0
-1098.32 -19.7876 0
-1097.77 -21.7402 0
-1097.18 -23.5087 0
-1096.56 -25.1059 0
-1095.89 -26.5437 0
-1095.2 -27.8312 0
-1094.47 -28.9785 0
-1093.72 -29.9937 0
-1092.93 -30.8844 0
-1092.11 -31.6574 0
-1091.27 -32.3185 0
-1090.4 -32.874 0
-1089.5 -33.329 0
-1088.58 -33.688 0
-1087.63 -33.9559 0
-1086.66 -34.1373 0
-1085.66 -34.2353 0
-1084.64 -34.2552 0
-1083.59 -34.2005 0
-1082.52 -34.0746 0
-1081.42 -33.8813 0
-1080.3 -33.6247 0
-1079.15 -33.3087 0
-1077.98 -32.9361 0
-1076.79 -32.5117 0
-1075.58 -32.0385 0
-1074.34 -31.5196 0
-1073.07 -30.959 0
-1071.79 -30.3597 0
-1070.48 -29.7257 0
-1069.16 -29.0584 0
-1067.81 -28.3624 0
-1066.44 -27.6401 0
-1065.05 -26.8944 0
-1063.63 -26.1283 0
-1062.21 -25.344 0
-1060.76 -24.5449 0
-1059.29 -23.7327 0
-1057.81 -22.9093 0
-1056.31 -22.0786 0
-1054.79 -21.2411 0
-1053.26 -20.4002 0
-1051.71 -19.557 0
-1050.15 -18.7129 0
-1048.57 -17.8709 0
-1046.98 -17.0324 0
-1045.37 -16.1984 0
-1043.76 -15.3703 0
-1042.13 -14.5503 0
-1040.49 -13.7392 0
-1038.84 -12.9381 0
-1037.18 -12.1493 0
-1035.51 -11.3722 0
-1033.82 -10.6085 0
-1032.14 -9.85913 0
-1030.44 -9.1248 0
-1028.73 -8.40703 0
-1027.02 -7.70649 0
-1025.3 -7.02256 0
-1023.57 -6.35694 0
-1021.84 -5.70993 0
-1020.1 -5.08216 0
-1018.36 -4.4752 0
-1016.61 -3.88722 0
-1014.86 -3.31949 0
-1013.1 -2.77247 0
-1011.34 -2.24678 0
-1009.57 -1.74231 0
-1007.81 -1.25839 0
-1006.04 -0.797012 0
-1004.27 -0.35562 0
-1002.49 0.0639779 0
-1000.72 0.462187 0
-998.941 0.838749 0
-997.164 1.19396 0
-995.387 1.52802 0
-993.608 1.84122 0
-991.83 2.13369 0
-990.052 2.40585 0
-988.273 2.65721 0
-986.496 2.8885 0
-984.718 3.09951 0
-982.942 3.29133 0
-981.167 3.46397 0
-979.393 3.61742 0
-977.62 3.75173 0
-975.85 3.86778 0
-974.081 3.96565 0
-972.314 4.04589 0
-970.549 4.10928 0
-968.787 4.15644 0
-967.027 4.18707 0
-965.269 4.20139 0
-963.514 4.20089 0
-961.762 4.18554 0
-960.012 4.15534 0
-958.265 4.11197 0
-956.521 4.05468 0
-954.781 3.98421 0
-953.043 3.90132 0
-951.308 3.80691 0
-949.577 3.70064 0
-947.848 3.58353 0
-946.123 3.45554 0
-944.401 3.31789 0
-942.683 3.1711 0
-940.968 3.0146 0
-939.255 2.85032 0
-937.547 2.67662 0
-935.842 2.49718 0
-934.14 2.31016 0
-932.441 2.11686 0
-930.745 1.91755 0
-929.053 1.71167 0
-927.363 1.502 0
-925.677 1.28668 0
-923.994 1.06737 0
-922.315 0.844622 0
-920.638 0.618906 0
-918.965 0.3895 0
-917.294 0.158279 0
-915.627 -0.0758482 0
-913.962 -0.310637 0
-912.3 -0.546927 0
-910.641 -0.784229 0
-908.984 -1.02204 0
-907.33 -1.26048 0
-905.679 -1.49805 0
-904.03 -1.73505 0
-902.383 -1.97072 0
-900.739 -2.20655 0
-899.097 -2.43972 0
-897.457 -2.67097 0
-895.82 -2.90087 0
-894.185 -3.12848 0
-892.551 -3.35333 0
-890.919 -3.57464 0
-889.29 -3.79378 0
-887.662 -4.00945 0
-886.035 -4.22156 0
-884.411 -4.42966 0
-882.788 -4.63311 0
-881.166 -4.83307 0
-879.546 -5.02914 0
-877.928 -5.21998 0
-876.31 -5.40666 0
-874.694 -5.58805 0
-873.079 -5.76444 0
-871.464 -5.93697 0
-869.851 -6.10309 0
-868.239 -6.26394 0
-866.627 -6.41952 0
-865.016 -6.57094 0
-863.405 -6.71634 0
-861.795 -6.85613 0
-860.186 -6.98919 0
-858.578 -7.11728 0
-856.97 -7.23977 0
-855.361 -7.35578 0
-853.754 -7.46715 0
-852.147 -7.57219 0
-850.539 -7.67299 0
-848.932 -7.7666 0
-847.326 -7.85466 0
-845.719 -7.93768 0
-844.112 -8.01482 0
-842.505 -8.08655 0
-840.897 -8.1524 0
-839.29 -8.21248 0
-837.682 -8.26696 0
-836.075 -8.31652 0
-834.466 -8.36037 0
-832.858 -8.39911 0
-831.249 -8.43248 0
-829.641 -8.46108 0
-828.031 -8.48373 0
-826.421 -8.50207 0
-824.811 -8.51614 0
-823.199 -8.52508 0
-821.588 -8.52937 0
-819.976 -8.52924 0
-818.362 -8.524 0
-816.749 -8.51535 0
-815.135 -8.50171 0
-813.519 -8.48362 0
-811.904 -8.4618 0
-810.287 -8.4367 0
-808.67 -8.40701 0
-807.052 -8.3745 0
-805.433 -8.33824 0
-803.814 -8.29855 0
-802.194 -8.25538 0
-800.574 -8.20839 0
-798.952 -8.15956 0
-797.329 -8.10741 0
-795.706 -8.05225 0
-794.082 -7.99531 0
-792.456 -7.93459 0
-790.832 -7.87203 0
-789.205 -7.80803 0
-787.577 -7.7389 0
-785.948 -7.67042 0
-784.319 -7.59995 0
-782.689 -7.52721 0
-781.058 -7.45278 0
-779.427 -7.37687 0
-777.794 -7.29881 0
-776.162 -7.22018 0
-774.528 -7.13967 0
-772.893 -7.05867 0
-771.258 -6.97651 0
-769.622 -6.89306 0
-767.986 -6.81019 0
-766.348 -6.72518 0
-764.71 -6.64001 0
-763.07 -6.55406 0
-761.43 -6.46822 0
-759.79 -6.38098 0
-758.148 -6.29552 0
-756.506 -6.20855 0
-754.864 -6.12268 0
-753.222 -6.03582 0
-751.577 -5.94939 0
-749.932 -5.86293 0
-748.288 -5.77787 0
-746.641 -5.69196 0
-744.995 -5.60736 0
-743.348 -5.52273 0
-741.7 -5.43959 0
-740.052 -5.35745 0
-738.404 -5.27448 0
-736.755 -5.19327 0
-735.106 -5.1134 0
-733.455 -5.03363 0
-731.805 -4.95634 0
-730.154 -4.8802 0
-728.504 -4.80426 0
-726.852 -4.7296 0
-725.2 -4.65532 0
-723.548 -4.58227 0
-721.896 -4.51309 0
-720.243 -4.44323 0
-718.591 -4.3754 0
-716.937 -4.30863 0
-715.283 -4.24462 0
-713.629 -4.18043 0
-711.975 -4.11799 0
-710.321 -4.05888 0
-708.666 -3.99958 0
-707.011 -3.94336 0
-705.356 -3.88818 0
-703.701 -3.83315 0
-702.046 -3.78075 0
-700.391 -3.7303 0
-698.735 -3.68248 0
-697.081 -3.63522 0
-695.425 -3.59148 0
-693.769 -3.54789 0
-692.114 -3.50555 0
-690.458 -3.4659 0
-688.803 -3.42765 0
-687.147 -3.39221 0
-685.49 -3.35661 0
-683.835 -3.32405 0
-682.179 -3.29377 0
-680.522 -3.26345 0
-678.866 -3.23588 0
-677.21 -3.21069 0
-675.555 -3.18596 0
-673.899 -3.16281 0
-672.244 -3.14197 0
-670.589 -3.12337 0
-668.933 -3.10591 0
-667.278 -3.09024 0
-665.622 -3.07472 0
-663.968 -3.06205 0
-662.313 -3.05014 0
-660.659 -3.04119 0
-659.006 -3.03302 0
-657.352 -3.02574 0
-655.698 -3.02049 0
-654.045 -3.01561 0
-652.391 -3.0134 0
-650.738 -3.01231 0
-649.083 -3.01219 0
-647.431 -3.01328 0
-645.777 -3.01582 0
-644.124 -3.02009 0
-642.472 -3.02519 0
-640.82 -3.03114 0
-639.168 -3.03785 0
-637.517 -3.04518 0
-635.865 -3.05513 0
-634.213 -3.06544 0
-632.562 -3.0771 0
-630.91 -3.08872 0
-629.26 -3.102 0
-627.609 -3.11777 0
-625.959 -3.13258 0
-624.307 -3.14804 0
-622.659 -3.16345 0
-621.009 -3.17993 0
-619.36 -3.19807 0
-617.71 -3.21663 0
-616.061 -3.23686 0
-614.412 -3.256 0
-612.763 -3.27695 0
-611.116 -3.2993 0
-609.468 -3.32007 0
-607.821 -3.34146 0
-606.174 -3.36451 0
-604.526 -3.38729 0
-602.879 -3.4108 0
-601.232 -3.43435 0
-599.584 -3.45765 0
-597.939 -3.48181 0
-596.292 -3.50605 0
-594.647 -3.53104 0
-593.002 -3.55606 0
-591.356 -3.58218 0
-589.71 -3.60638 0
-588.065 -3.63294 0
-586.42 -3.65895 0
-584.775 -3.68376 0
-583.131 -3.7101 0
-581.487 -3.7358 0
-579.842 -3.76239 0
-578.196 -3.78878 0
-576.552 -3.81479 0
-574.908 -3.84058 0
-573.266 -3.86631 0
-571.622 -3.8923 0
-569.978 -3.91893 0
-568.334 -3.94384 0
-566.693 -3.96947 0
-565.048 -3.99284 0
-563.406 -4.0174 0
-561.763 -4.0422 0
-560.121 -4.06518 0
-558.479 -4.08976 0
-556.836 -4.11467 0
-555.194 -4.13908 0
-553.552 -4.16163 0
-551.91 -4.18474 0
-550.27 -4.20707 0
-548.628 -4.2292 0
-546.987 -4.251 0
-545.346 -4.27249 0
-543.705 -4.29321 0
-542.064 -4.3143 0
-540.422 -4.33465 0
-538.78 -4.35439 0
-537.139 -4.37367 0
-535.497 -4.39245 0
-533.856 -4.41142 0
-532.217 -4.43095 0
-530.576 -4.44926 0
-528.935 -4.46678 0
-527.295 -4.48331 0
-525.654 -4.49841 0
-524.014 -4.51518 0
-522.374 -4.52902 0
-520.734 -4.54227 0
-519.094 -4.55875 0
-517.453 -4.57256 0
-515.813 -4.58647 0
-514.174 -4.60004 0
-512.533 -4.61295 0
-510.892 -4.62461 0
-509.25 -4.63639 0
-507.611 -4.64766 0
-505.97 -4.65807 0
-504.33 -4.66895 0
-502.689 -4.67866 0
-501.048 -4.69027 0
-499.409 -4.69713 0
-497.767 -4.70639 0
-496.128 -4.71357 0
-494.487 -4.72172 0
-492.846 -4.72927 0
-491.205 -4.73673 0
-489.564 -4.74241 0
-487.923 -4.74749 0
-486.283 -4.75328 0
-484.642 -4.75831 0
-483.002 -4.76275 0
-481.361 -4.76821 0
-479.719 -4.77147 0
-478.079 -4.77491 0
-476.439 -4.77926 0
-474.798 -4.78151 0
-473.157 -4.78482 0
-471.516 -4.78721 0
-469.876 -4.78872 0
-468.235 -4.78957 0
-466.595 -4.79031 0
-464.954 -4.79169 0
-463.311 -4.7911 0
-461.669 -4.79037 0
-460.029 -4.79051 0
-458.387 -4.79129 0
-456.745 -4.79031 0
-455.103 -4.79052 0
-453.461 -4.78915 0
-451.819 -4.7891 0
-450.179 -4.78775 0
-448.536 -4.78364 0
-446.892 -4.78211 0
-445.251 -4.78167 0
-443.61 -4.77812 0
-441.968 -4.77602 0
-440.325 -4.773 0
-438.684 -4.77306 0
-437.042 -4.77166 0
-435.401 -4.76705 0
-433.759 -4.76337 0
-432.117 -4.76156 0
-430.475 -4.75733 0
-428.831 -4.75307 0
-427.188 -4.74809 0
-425.545 -4.74089 0
-423.902 -4.73739 0
-422.26 -4.73242 0
-420.618 -4.7301 0
-418.975 -4.72547 0
-417.332 -4.72063 0
-415.69 -4.71656 0
-414.046 -4.71283 0
-412.403 -4.70797 0
-410.759 -4.70318 0
-409.116 -4.6962 0
-407.472 -4.69412 0
-405.828 -4.68828 0
-404.183 -4.6822 0
-402.541 -4.67952 0
-400.898 -4.6755 0
-399.253 -4.67152 0
-397.611 -4.66788 0
-395.968 -4.6601 0
-394.324 -4.6569 0
-392.68 -4.65326 0
-391.037 -4.64821 0
-389.393 -4.64386 0
-387.751 -4.63891 0
-386.106 -4.63383 0
-384.463 -4.62985 0
-382.819 -4.62593 0
-381.174 -4.62151 0
-379.529 -4.61702 0
-377.886 -4.61205 0
-376.242 -4.60837 0
-374.597 -4.60598 0
-372.953 -4.60139 0
-371.311 -4.59801 0
-369.665 -4.59762 0
-368.021 -4.59248 0
-366.376 -4.59184 0
-364.734 -4.58822 0
-363.091 -4.58378 0
-361.446 -4.58145 0
-359.804 -4.57767 0
-358.159 -4.57644 0
-356.515 -4.57399 0
-354.869 -4.57136 0
-353.226 -4.57007 0
-351.579 -4.56851 0
-349.935 -4.56425 0
-348.29 -4.56355 0
-346.647 -4.56219 0
-345.001 -4.56299 0
-343.357 -4.56142 0
-341.713 -4.56104 0
-340.069 -4.55886 0
-338.424 -4.55937 0
-336.781 -4.56127 0
-335.138 -4.56179 0
-333.494 -4.56192 0
-331.85 -4.56144 0
-330.205 -4.56062 0
-328.56 -4.56079 0
-326.916 -4.56273 0
-325.271 -4.56345 0
-323.628 -4.56264 0
-321.985 -4.56472 0
-320.34 -4.56503 0
-318.696 -4.5662 0
-317.05 -4.56666 0
-315.408 -4.56745 0
-313.764 -4.56924 0
-312.119 -4.57201 0
-310.474 -4.57359 0
-308.831 -4.57533 0
-307.187 -4.57894 0
-305.543 -4.58169 0
-303.9 -4.58372 0
-302.256 -4.58629 0
-300.611 -4.58917 0
-298.968 -4.59317 0
-297.323 -4.59615 0
-295.679 -4.59773 0
-294.036 -4.59865 0
-292.394 -4.60264 0
-290.749 -4.60701 0
-289.104 -4.61068 0
-287.459 -4.61431 0
-285.816 -4.61742 0
-284.171 -4.62071 0
-282.527 -4.6241 0
-280.884 -4.63094 0
-279.241 -4.63413 0
-277.597 -4.63825 0
-275.954 -4.64255 0
-274.308 -4.64672 0
-272.665 -4.65046 0
-271.022 -4.65595 0
-269.379 -4.65905 0
-267.736 -4.66345 0
-266.093 -4.66834 0
-264.449 -4.67326 0
-262.804 -4.67717 0
-261.161 -4.6802 0
-259.516 -4.6851 0
-257.874 -4.69221 0
-256.231 -4.69768 0
-254.587 -4.70142 0
-252.942 -4.70771 0
-251.302 -4.71395 0
-249.658 -4.72005 0
-248.014 -4.72875 0
-246.37 -4.73224 0
-244.727 -4.73711 0
-243.085 -4.73985 0
-241.442 -4.74462 0
-239.797 -4.74894 0
-238.153 -4.75476 0
-236.509 -4.76356 0
-234.865 -4.76612 0
-233.223 -4.7728 0
-231.58 -4.77908 0
-229.937 -4.78501 0
-228.293 -4.79146 0
-226.651 -4.79746 0
-225.006 -4.80336 0
-223.365 -4.80859 0
-221.719 -4.81421 0
-220.077 -4.81944 0
-218.436 -4.82493 0
-216.793 -4.83156 0
-215.15 -4.83657 0
-213.506 -4.84325 0
-211.864 -4.85 0
-210.22 -4.85646 0
-208.58 -4.86175 0
-206.936 -4.86691 0
-205.292 -4.86974 0
-203.649 -4.87501 0
-202.007 -4.87969 0
-200.365 -4.88631 0
-198.723 -4.89061 0
-197.08 -4.89638 0
-195.437 -4.90174 0
-193.792 -4.90786 0
-192.15 -4.91187 0
-190.508 -4.91705 0
-188.865 -4.92347 0
-187.223 -4.92549 0
-185.582 -4.93051 0
-183.939 -4.93644 0
-182.296 -4.94198 0
-180.654 -4.94843 0
-179.01 -4.95153 0
-177.367 -4.95784 0
-175.725 -4.9612 0
-174.083 -4.96625 0
-172.44 -4.96989 0
-170.796 -4.97339 0
-169.155 -4.97722 0
-167.513 -4.98127 0
-165.87 -4.98863 0
-164.228 -4.99368 0
-162.585 -4.9967 0
-160.944 -5.00029 0
-159.299 -5.00645 0
-157.657 -5.01147 0
-156.013 -5.0134 0
-154.372 -5.01626 0
-152.728 -5.0208 0
-151.086 -5.0255 0
-149.444 -5.03003 0
-147.801 -5.03423 0
-146.16 -5.04023 0
-144.519 -5.0436 0
-142.875 -5.04712 0
-141.233 -5.05301 0
-139.59 -5.05933 0
-137.948 -5.06014 0
-136.307 -5.06258 0
-134.665 -5.06558 0
-133.025 -5.06722 0
-131.384 -5.07124 0
-129.74 -5.0753 0
-128.098 -5.07901 0
-126.456 -5.07958 0
-124.813 -5.08421 0
-123.171 -5.0891 0
-121.529 -5.09228 0
-119.888 -5.09231 0
-118.247 -5.0929 0
-116.603 -5.09547 0
-114.961 -5.09799 0
-113.318 -5.10098 0
-111.675 -5.10464 0
-110.032 -5.10869 0
-108.39 -5.11257 0
-106.746 -5.11468 0
-105.105 -5.11291 0
-103.461 -5.11795 0
-101.819 -5.11664 0
-100.176 -5.11958 0
-98.5344 -5.11948 0
-96.8916 -5.1231 0
-95.2471 -5.12686 0
-93.6072 -5.12671 0
-91.965 -5.13033 0
-90.3233 -5.13061 0
-88.6814 -5.13542 0
-87.0392 -5.1372 0
-85.3966 -5.13955 0
-83.7553 -5.13814 0
-82.1114 -5.141 0
-80.4694 -5.14146 0
-78.8285 -5.14613 0
-77.1855 -5.14875 0
-75.5429 -5.15011 0
-73.9011 -5.15048 0
-72.2582 -5.15126 0
-70.616 -5.15238 0
-68.974 -5.15427 0
-67.3336 -5.15315 0
-65.69 -5.15556 0
-64.0481 -5.15571 0
-62.4054 -5.15729 0
-60.7643 -5.15976 0
-59.1217 -5.16187 0
-57.4775 -5.15803 0
-55.8355 -5.16099 0
-54.1938 -5.16095 0
-52.5511 -5.16177 0
-50.9082 -5.16087 0
-49.2667 -5.15964 0
-47.6253 -5.15903 0
-45.9817 -5.15947 0
-44.34 -5.1602 0
-42.6974 -5.16447 0
-41.0542 -5.16607 0
-39.4138 -5.16685 0
-37.7721 -5.16608 0
-36.1307 -5.16643 0
-34.488 -5.16852 0
-32.8446 -5.16731 0
-31.2024 -5.16757 0
-29.5603 -5.16856 0
-27.9179 -5.16856 0
-26.2747 -5.16788 0
-24.632 -5.16888 0
-22.9899 -5.17127 0
-21.3483 -5.16941 0
-19.7086 -5.17129 0
-18.0646 -5.17063 0
-16.4223 -5.17 0
-14.7805 -5.17168 0
-13.1375 -5.17032 0
-11.4958 -5.16903 0
-9.8539 -5.16866 0
-8.21101 -5.16689 0
-6.5687 -5.16921 0
-4.92525 -5.16971 0
-3.28311 -5.16784 0
-1.6435 -5.16752 0
0 -5.1653 0
-1111.27 87.9332 0
-1110.84 79.6419 0
-1110.55 71.7502 0
-1110.23 64.1339 0
-1109.9 56.7937 0
-1109.56 49.7262 0
-1109.21 42.9412 0
-1108.82 36.4518 0
-1108.37 30.2824 0
-1107.88 24.4635 0
-1107.36 19.0119 0
-1106.82 13.9308 0
-1106.26 9.21642 0
-1105.69 4.86006 0
-1105.1 0.848278 0
-1104.5 -2.83524 0
-1103.88 -6.20968 0
-1103.24 -9.29451 0
-1102.58 -12.1105 0
-1101.9 -14.6772 0
-1101.2 -17.0131 0
-1100.47 -19.1352 0
-1099.72 -21.0593 0
-1098.95 -22.7999 0
-1098.15 -24.3692 0
-1097.33 -25.7795 0
-1096.49 -27.0409 0
-1095.62 -28.1627 0
-1094.73 -29.1533 0
-1093.82 -30.0197 0
-1092.88 -30.7688 0
-1091.93 -31.4066 0
-1090.95 -31.9392 0
-1089.96 -32.3713 0
-1088.94 -32.7081 0
-1087.9 -32.9535 0
-1086.84 -33.1118 0
-1085.77 -33.1879 0
-1084.67 -33.1855 0
-1083.54 -33.108 0
-1082.4 -32.9598 0
-1081.24 -32.7447 0
-1080.06 -32.4657 0
-1078.85 -32.1274 0
-1077.63 -31.7333 0
-1076.39 -31.2868 0
-1075.12 -30.7925 0
-1073.84 -30.2523 0
-1072.54 -29.6708 0
-1071.21 -29.051 0
-1069.87 -28.3961 0
-1068.51 -27.7092 0
-1067.14 -26.9935 0
-1065.74 -26.2524 0
-1064.33 -25.4881 0
-1062.9 -24.7035 0
-1061.45 -23.9019 0
-1059.99 -23.0854 0
-1058.51 -22.2565 0
-1057.01 -21.4175 0
-1055.5 -20.5699 0
-1053.98 -19.7182 0
-1052.44 -18.8624 0
-1050.89 -18.0048 0
-1049.33 -17.1477 0
-1047.75 -16.2929 0
-1046.17 -15.4411 0
-1044.57 -14.595 0
-1042.96 -13.7557 0
-1041.34 -12.9244 0
-1039.7 -12.1032 0
-1038.06 -11.2917 0
-1036.41 -10.4933 0
-1034.75 -9.70721 0
-1033.09 -8.93522 0
-1031.41 -8.17743 0
-1029.73 -7.43579 0
-1028.04 -6.71047 0
-1026.34 -6.00321 0
-1024.64 -5.31271 0
-1022.93 -4.64138 0
-1021.21 -3.98921 0
-1019.49 -3.35622 0
-1017.77 -2.74375 0
-1016.04 -2.15139 0
-1014.31 -1.57969 0
-1012.57 -1.02936 0
-1010.83 -0.500041 0
-1009.09 0.00707952 0
-1007.34 0.493627 0
-1005.59 0.957669 0
-1003.84 1.40052 0
-1002.09 1.82208 0
-1000.34 2.22182 0
-998.579 2.59949 0
-996.823 2.95564 0
-995.066 3.29054 0
-993.307 3.6042 0
-991.549 3.89664 0
-989.791 4.16833 0
-988.032 4.41949 0
-986.274 4.65003 0
-984.517 4.86074 0