<?xml version="1.0"?>
<VTKFile type="StructuredGrid"  version="0.1" byte_order="LittleEndian" compressor="vtkZLibDataCompressor">
  <StructuredGrid WholeExtent="0 700 0 30 0 0">
    <Piece Extent="0 700 0 30 0 0">
      <PointData Vectors="Velocity">
        <DataArray type="Float32" Name="Velocity" NumberOfComponents="3" format="ascii">
-1092.24 121.085 0
-1092.33 112.127 0
-1092.49 103.334 0
-1092.67 94.8014 0
-1092.86 86.5649 0
-1093.04 78.613 0
-1093.2 70.9241 0
-1093.39 63.5194 0
-1093.58 56.4453 0
-1093.78 49.7222 0
-1093.96 43.356 0
-1094.13 37.3479 0
-1094.27 31.6947 0
-1094.39 26.388 0
-1094.48 21.4183 0
-1094.53 16.7729 0
-1094.53 12.4336 0
-1094.48 8.38509 0
-1094.39 4.61022 0
-1094.24 1.09297 0
-1094.05 -2.18241 0
-1093.8 -5.23038 0
-1093.51 -8.06469 0
-1093.17 -10.6974 0
-1092.79 -13.1416 0
-1092.37 -15.4066 0
-1091.9 -17.5034 0
-1091.41 -19.4393 0
-1090.87 -21.2227 0
-1090.31 -22.8608 0
-1089.71 -24.3619 0
-1089.08 -25.7311 0
-1088.42 -26.9725 0
-1087.74 -28.0924 0
-1087.03 -29.0936 0
-1086.29 -29.9831 0
-1085.52 -30.7641 0
-1084.73 -31.4402 0
-1083.91 -32.0165 0
-1083.06 -32.4949 0
-1082.19 -32.8807 0
-1081.29 -33.176 0
-1080.37 -33.3877 0
-1079.41 -33.5156 0
-1078.44 -33.565 0
-1077.43 -33.5403 0
-1076.4 -33.4442 0
-1075.35 -33.2799 0
-1074.27 -33.0516 0
-1073.16 -32.7611 0
-1072.02 -32.4145 0
-1070.87 -32.0139 0
-1069.68 -31.5625 0
-1068.48 -31.063 0
-1067.24 -30.52 0
-1065.99 -29.9354 0
-1064.71 -29.3114 0
-1063.41 -28.6533 0
-1062.09 -27.9624 0
-1060.74 -27.2418 0
-1059.38 -26.4948 0
-1057.99 -25.7232 0
-1056.58 -24.9287 0
-1055.16 -24.1139 0
-1053.71 -23.2848 0
-1052.25 -22.4376 0
-1050.76 -21.5781 0
-1049.26 -20.7091 0
-1047.75 -19.8307 0
-1046.21 -18.9465 0
-1044.66 -18.0562 0
-1043.1 -17.1632 0
-1041.52 -16.2684 0
-1039.93 -15.3729 0
-1038.32 -14.4793 0
-1036.7 -13.5882 0
-1035.07 -12.7021 0
-1033.42 -11.8219 0
-1031.77 -10.9472 0
-1030.1 -10.0825 0
-1028.42 -9.22552 0
-1026.73 -8.38011 0
-1025.03 -7.54604 0
-1023.32 -6.72334 0
-1021.61 -5.91338 0
-1019.88 -5.1189 0
-1018.15 -4.33884 0
-1016.41 -3.57233 0
-1014.67 -2.82367 0
-1012.91 -2.09198 0
-1011.15 -1.37683 0
-1009.39 -0.679211 0
-1007.62 0.000201749 0
-1005.84 0.659859 0
-1004.06 1.30233 0
-1002.28 1.92379 0
-1000.49 2.5256 0
-998.698 3.10704 0
-996.902 3.66871 0
-995.104 4.20987 0
-993.302 4.72997 0
-991.499 5.22993 0
-989.693 5.70788 0
-987.886 6.16436 0
-986.078 6.60001 0
-984.268 7.01494 0
-982.457 7.4084 0
-980.646 7.78135 0
-978.833 8.13343 0
-977.022 8.46367 0
-975.209 8.7733 0
-973.398 9.06295 0
-971.587 9.33205 0
-969.776 9.58172 0
-967.967 9.8097 0
-966.159 10.0173 0
-964.351 10.2062 0
-962.545 10.3754 0
-960.741 10.5262 0
-958.938 10.6569 0
-957.137 10.7692 0
-955.339 10.8638 0
-953.543 10.9399 0
-951.748 10.9983 0
-949.957 11.0399 0
-948.167 11.0635 0
-946.381 11.0714 0
-944.598 11.0641 0
-942.816 11.0403 0
-941.039 11.0008 0
-939.264 10.9462 0
-937.492 10.8778 0
-935.724 10.7948 0
-933.958 10.6976 0
-932.195 10.5875 0
-930.437 10.4641 0
-928.681 10.3282 0
-926.929 10.1804 0
-925.18 10.0207 0
-923.434 9.84995 0
-921.693 9.66821 0
-919.954 9.47619 0
-918.219 9.27381 0
-916.487 9.06272 0
-914.759 8.84312 0
-913.034 8.6143 0
-911.312 8.37683 0
-909.594 8.13289 0
-907.88 7.88132 0
-906.17 7.62237 0
-904.462 7.35756 0
-902.759 7.08669 0
-901.058 6.81053 0
-899.361 6.52911 0
-897.667 6.243 0
-895.976 5.95137 0
-894.289 5.65543 0
-892.606 5.35696 0
-890.924 5.05578 0
-889.247 4.75156 0
-887.573 4.44412 0
-885.901 4.13516 0
-884.232 3.82503 0
-882.566 3.51236 0
-880.903 3.19939 0
-879.244 2.88558 0
-877.588 2.57247 0
-875.932 2.25918 0
-874.281 1.94496 0
-872.631 1.6315 0
-870.984 1.31916 0
-869.34 1.00781 0
-867.697 0.698249 0
-866.058 0.390263 0
-864.42 0.083312 0
-862.786 -0.220116 0
-861.151 -0.521405 0
-859.52 -0.81996 0
-857.89 -1.11577 0
-856.262 -1.40805 0
-854.636 -1.69735 0
-853.011 -1.9833 0
-851.389 -2.2654 0
-849.768 -2.54308 0
-848.148 -2.81747 0
-846.53 -3.08747 0
-844.913 -3.35393 0
-843.297 -3.61467 0
-841.683 -3.87145 0
-840.071 -4.12211 0
-838.459 -4.36982 0
-836.848 -4.61072 0
-835.239 -4.84716 0
-833.629 -5.07818 0
-832.02 -5.30314 0
-830.414 -5.52356 0
-828.807 -5.73884 0
-827.202 -5.9487 0
-825.597 -6.15275 0
-823.992 -6.35013 0
-822.388 -6.5436 0
-820.784 -6.7297 0
-819.179 -6.91003 0
-817.577 -7.08572 0
-815.974 -7.25507 0
-814.371 -7.4185 0
-812.769 -7.5754 0
-811.166 -7.72731 0
-809.564 -7.8746 0
-807.961 -8.01392 0
-806.359 -8.14851 0
-804.756 -8.27786 0
-803.153 -8.40076 0
-801.55 -8.51854 0
-799.948 -8.6298 0
-798.344 -8.73503 0
-796.741 -8.83536 0
-795.138 -8.93023 0
-793.533 -9.01799 0
-791.929 -9.1027 0
-790.323 -9.18164 0
-788.718 -9.25458 0
-787.112 -9.32217 0
-785.505 -9.38462 0
-783.897 -9.44158 0
-782.29 -9.49453 0
-780.682 -9.54259 0
-779.073 -9.58628 0
-777.464 -9.6244 0
-775.854 -9.65685 0
-774.244 -9.6861 0
-772.632 -9.71112 0
-771.02 -9.7305 0
-769.407 -9.74584 0
-767.794 -9.75757 0
-766.18 -9.76517 0
-764.565 -9.76729 0
-762.949 -9.76552 0
-761.332 -9.76222 0
-759.714 -9.75489 0
-758.096 -9.74286 0
-756.478 -9.72794 0
-754.858 -9.70917 0
-753.238 -9.6861 0
-751.617 -9.66214 0
-749.994 -9.63322 0
-748.371 -9.60315 0
-746.747 -9.56866 0
-745.122 -9.53161 0
-743.497 -9.49244 0
-741.87 -9.44974 0
-740.241 -9.40512 0
-738.613 -9.35872 0
-736.985 -9.30959 0
-735.355 -9.25808 0
-733.724 -9.20587 0
-732.091 -9.15029 0
-730.458 -9.09408 0
-728.824 -9.03539 0
-727.19 -8.97669 0
-725.556 -8.91679 0
-723.921 -8.85485 0
-722.284 -8.79043 0
-720.647 -8.72577 0
-719.008 -8.65961 0
-717.369 -8.59179 0
-715.729 -8.5232 0
-714.088 -8.45464 0
-712.446 -8.38602 0
-710.803 -8.31607 0
-709.16 -8.24557 0
-707.517 -8.17517 0
-705.872 -8.10278 0
-704.227 -8.03019 0
-702.582 -7.95964 0
-700.935 -7.88739 0
-699.288 -7.81501 0
-697.642 -7.74318 0
-695.995 -7.67028 0
-694.346 -7.59912 0
-692.697 -7.52774 0
-691.046 -7.45581 0
-689.395 -7.38578 0
-687.744 -7.31589 0
-686.093 -7.2459 0
-684.442 -7.17692 0
-682.79 -7.10984 0
-681.136 -7.04186 0
-679.483 -6.97413 0
-677.829 -6.90707 0
-676.175 -6.84054 0
-674.52 -6.77655 0
-672.864 -6.71161 0
-671.208 -6.64907 0
-669.553 -6.58824 0
-667.896 -6.52844 0
-666.24 -6.46845 0
-664.583 -6.41131 0
-662.926 -6.35399 0
-661.268 -6.29745 0
-659.61 -6.24255 0
-657.953 -6.1891 0
-656.295 -6.13682 0
-654.637 -6.08502 0
-652.978 -6.0361 0
-651.318 -5.9871 0
-649.659 -5.94101 0
-648 -5.89511 0
-646.342 -5.85135 0
-644.683 -5.80922 0
-643.023 -5.76667 0
-641.364 -5.72835 0
-639.702 -5.69074 0
-638.041 -5.65386 0
-636.382 -5.61849 0
-634.721 -5.58513 0
-633.058 -5.55234 0
-631.4 -5.52147 0
-629.739 -5.49282 0
-628.079 -5.4634 0
-626.419 -5.44064 0
-624.758 -5.41608 0
-623.098 -5.39173 0
-621.436 -5.37036 0
-619.776 -5.35065 0
-618.118 -5.33134 0
-616.457 -5.31342 0
-614.796 -5.29741 0
-613.135 -5.28341 0
-611.477 -5.27011 0
-609.817 -5.25993 0
-608.156 -5.24987 0
-606.495 -5.24225 0
-604.836 -5.23661 0
-603.176 -5.22923 0
-601.516 -5.22595 0
-599.856 -5.22258 0
-598.197 -5.22215 0
-596.538 -5.22054 0
-594.881 -5.22098 0
-593.223 -5.22287 0
-591.563 -5.22768 0
-589.905 -5.23241 0
-588.247 -5.23703 0
-586.588 -5.24685 0
-584.931 -5.25265 0
-583.273 -5.2626 0
-581.615 -5.27344 0
-579.958 -5.28564 0
-578.299 -5.29805 0
-576.642 -5.31214 0
-574.987 -5.32738 0
-573.33 -5.34555 0
-571.674 -5.36217 0
-570.019 -5.37954 0
-568.362 -5.39842 0
-566.707 -5.42025 0
-565.051 -5.44029 0
-563.394 -5.46082 0
-561.74 -5.48388 0
-560.086 -5.50671 0
-558.43 -5.5302 0
-556.777 -5.5551 0
-555.122 -5.5809 0
-553.469 -5.6065 0
-551.817 -5.63271 0
-550.164 -5.66009 0
-548.51 -5.68516 0
-546.857 -5.71442 0
-545.204 -5.74203 0
-543.552 -5.7719 0
-541.899 -5.80353 0
-540.247 -5.83521 0
-538.596 -5.86498 0
-536.945 -5.89524 0
-535.293 -5.92741 0
-533.643 -5.95701 0
-531.991 -5.98822 0
-530.34 -6.01937 0
-528.69 -6.05268 0
-527.039 -6.08523 0
-525.39 -6.11743 0
-523.74 -6.15291 0
-522.09 -6.18362 0
-520.44 -6.2157 0
-518.791 -6.24956 0
-517.144 -6.282 0
-515.494 -6.31706 0
-513.848 -6.34989 0
-512.198 -6.38249 0
-510.549 -6.41442 0
-508.9 -6.44737 0
-507.253 -6.48041 0
-505.606 -6.51305 0
-503.956 -6.54533 0
-502.31 -6.57806 0
-500.663 -6.61024 0
-499.016 -6.64182 0
-497.37 -6.67479 0
-495.722 -6.70849 0
-494.076 -6.74209 0
-492.431 -6.77275 0
-490.785 -6.80246 0
-489.138 -6.83234 0
-487.493 -6.8624 0
-485.846 -6.89164 0
-484.2 -6.92223 0
-482.555 -6.95085 0
-480.911 -6.97895 0
-479.267 -7.00708 0
-477.622 -7.03713 0
-475.975 -7.06554 0
-474.33 -7.09211 0
-472.686 -7.12 0
-471.041 -7.14679 0
-469.398 -7.17178 0
-467.753 -7.19752 0
-466.107 -7.22284 0
-464.462 -7.24769 0
-462.818 -7.26966 0
-461.173 -7.29408 0
-459.53 -7.31955 0
-457.885 -7.34067 0
-456.243 -7.36388 0
-454.599 -7.38709 0
-452.955 -7.40746 0
-451.313 -7.42792 0
-449.67 -7.44905 0
-448.026 -7.46989 0
-446.382 -7.49081 0
-444.737 -7.50736 0
-443.094 -7.5259 0
-441.45 -7.54324 0
-439.808 -7.55928 0
-438.164 -7.5738 0
-436.52 -7.59058 0
-434.875 -7.605 0
-433.233 -7.62008 0
-431.589 -7.63436 0
-429.947 -7.64841 0
-428.305 -7.65994 0
-426.661 -7.67341 0
-425.018 -7.6875 0
-423.374 -7.6976 0
-421.731 -7.70915 0
-420.087 -7.71773 0
-418.443 -7.73033 0
-416.8 -7.73602 0
-415.156 -7.74329 0
-413.512 -7.75271 0
-411.869 -7.75778 0
-410.226 -7.76538 0
-408.583 -7.77064 0
-406.942 -7.77916 0
-405.299 -7.78089 0
-403.654 -7.78607 0
-402.013 -7.78898 0
-400.369 -7.79329 0
-398.724 -7.79542 0
-397.08 -7.79687 0
-395.435 -7.7985 0
-393.792 -7.79807 0
-392.148 -7.79876 0
-390.504 -7.79895 0
-388.861 -7.7979 0
-387.216 -7.79666 0
-385.571 -7.79559 0
-383.927 -7.79466 0
-382.282 -7.79305 0
-380.64 -7.7898 0
-378.995 -7.78565 0
-377.35 -7.78229 0
-375.707 -7.77799 0
-374.062 -7.77273 0
-372.417 -7.76682 0
-370.772 -7.76195 0
-369.129 -7.75594 0
-367.483 -7.75052 0
-365.839 -7.74561 0
-364.194 -7.73884 0
-362.549 -7.72879 0
-360.904 -7.7202 0
-359.26 -7.71226 0
-357.613 -7.70523 0
-355.967 -7.69722 0
-354.324 -7.68957 0
-352.676 -7.67649 0
-351.032 -7.6679 0
-349.387 -7.6589 0
-347.74 -7.64909 0
-346.094 -7.63876 0
-344.447 -7.6274 0
-342.803 -7.61792 0
-341.157 -7.60419 0
-339.511 -7.59405 0
-337.864 -7.58213 0
-336.219 -7.56973 0
-334.572 -7.55752 0
-332.925 -7.54508 0
-331.281 -7.53476 0
-329.636 -7.5215 0
-327.99 -7.50843 0
-326.344 -7.49187 0
-324.698 -7.48131 0
-323.05 -7.4671 0
-321.403 -7.45261 0
-319.758 -7.44054 0
-318.111 -7.42658 0
-316.461 -7.41292 0
-314.816 -7.39853 0
-313.168 -7.38325 0
-311.522 -7.3677 0
-309.874 -7.35106 0
-308.227 -7.33854 0
-306.579 -7.32224 0
-304.932 -7.3067 0
-303.286 -7.29281 0
-301.641 -7.27787 0
-299.992 -7.26394 0
-298.344 -7.24636 0
-296.695 -7.23341 0
-295.049 -7.21797 0
-293.401 -7.2056 0
-291.755 -7.18883 0
-290.106 -7.17205 0
-288.458 -7.15735 0
-286.811 -7.14315 0
-285.161 -7.12633 0
-283.513 -7.11198 0
-281.865 -7.09538 0
-280.217 -7.07991 0
-278.569 -7.06259 0
-276.921 -7.0499 0
-275.273 -7.03449 0
-273.627 -7.01885 0
-271.977 -7.00415 0
-270.329 -6.99184 0
-268.682 -6.97458 0
-267.033 -6.95993 0
-265.385 -6.94655 0
-263.736 -6.93303 0
-262.086 -6.91605 0
-260.438 -6.90328 0
-258.789 -6.88738 0
-257.141 -6.87251 0
-255.49 -6.85937 0
-253.843 -6.84614 0
-252.195 -6.83303 0
-250.547 -6.82031 0
-248.899 -6.80647 0
-247.249 -6.7926 0
-245.598 -6.77948 0
-243.95 -6.76723 0
-242.301 -6.75436 0
-240.653 -6.74225 0
-239.005 -6.73164 0
-237.356 -6.71752 0
-235.706 -6.70662 0
-234.056 -6.69166 0
-232.407 -6.67999 0
-230.758 -6.66904 0
-229.108 -6.65608 0
-227.459 -6.64509 0
-225.813 -6.63401 0
-224.164 -6.62173 0
-222.514 -6.60955 0
-220.865 -6.59659 0
-219.216 -6.58727 0
-217.567 -6.57749 0
-215.919 -6.56601 0
-214.269 -6.55602 0
-212.619 -6.5443 0
-210.971 -6.53441 0
-209.322 -6.52541 0
-207.673 -6.51864 0
-206.025 -6.50677 0
-204.374 -6.49592 0
-202.725 -6.48723 0
-201.079 -6.47777 0
-199.429 -6.46966 0
-197.779 -6.46187 0
-196.133 -6.45194 0
-194.484 -6.44266 0
-192.833 -6.4322 0
-191.185 -6.42699 0
-189.534 -6.41959 0
-187.884 -6.41337 0
-186.236 -6.40538 0
-184.587 -6.39857 0
-182.938 -6.39116 0
-181.287 -6.38337 0
-179.637 -6.37539 0
-177.989 -6.36789 0
-176.339 -6.36212 0
-174.692 -6.35577 0
-173.044 -6.34887 0
-171.395 -6.33992 0
-169.745 -6.33419 0
-168.097 -6.32836 0
-166.449 -6.32605 0
-164.8 -6.32026 0
-163.15 -6.31355 0
-161.5 -6.30953 0
-159.851 -6.30031 0
-158.203 -6.29759 0
-156.554 -6.29328 0
-154.905 -6.28944 0
-153.257 -6.28403 0
-151.607 -6.27859 0
-149.958 -6.27536 0
-148.309 -6.2718 0
-146.659 -6.26456 0
-145.012 -6.2611 0
-143.362 -6.25896 0
-141.714 -6.25373 0
-140.063 -6.24977 0
-138.412 -6.24782 0
-136.765 -6.24604 0
-135.119 -6.24216 0
-133.473 -6.23894 0
-131.823 -6.23654 0
-130.174 -6.23284 0
-128.525 -6.22943 0
-126.875 -6.22841 0
-125.227 -6.22619 0
-123.578 -6.22468 0
-121.931 -6.22264 0
-120.282 -6.21867 0
-118.634 -6.21853 0
-116.986 -6.21572 0
-115.338 -6.21858 0
-113.691 -6.21256 0
-112.042 -6.21245 0
-110.392 -6.21169 0
-108.746 -6.20952 0
-107.096 -6.20795 0
-105.448 -6.20397 0
-103.8 -6.20454 0
-102.154 -6.20431 0
-100.504 -6.20243 0
-98.8544 -6.20187 0
-97.2079 -6.20167 0
-95.5592 -6.19941 0
-93.9087 -6.1993 0
-92.2605 -6.20019 0
-90.6144 -6.19684 0
-88.9684 -6.19926 0
-87.3191 -6.19842 0
-85.6724 -6.19654 0
-84.0241 -6.19841 0
-82.3751 -6.19661 0
-80.727 -6.19583 0
-79.0787 -6.19629 0
-77.4316 -6.19754 0
-75.7844 -6.19666 0
-74.1359 -6.19439 0
-72.4881 -6.19715 0
-70.8409 -6.195 0
-69.1941 -6.19304 0
-67.547 -6.19182 0
-65.899 -6.19265 0
-64.2514 -6.19034 0
-62.6034 -6.19105 0
-60.9581 -6.1935 0
-59.3096 -6.19107 0
-57.6623 -6.19231 0
-56.0144 -6.19307 0
-54.3651 -6.19227 0
-52.7184 -6.1908 0
-51.0709 -6.18937 0
-49.4241 -6.19056 0
-47.7736 -6.19126 0
-46.1289 -6.18764 0
-44.4799 -6.1906 0
-42.8312 -6.19224 0
-41.1839 -6.1921 0
-39.5382 -6.19165 0
-37.8892 -6.19111 0
-36.2429 -6.19287 0
-34.5965 -6.19254 0
-32.9495 -6.19071 0
-31.3001 -6.19314 0
-29.6514 -6.19014 0
-28.008 -6.18921 0
-26.3615 -6.19066 0
-24.7136 -6.19251 0
-23.0658 -6.19 0
-21.4188 -6.18902 0
-19.7695 -6.18771 0
-18.1227 -6.18954 0
-16.4755 -6.19093 0
-14.8269 -6.19145 0
-13.1817 -6.19014 0
-11.532 -6.18942 0
-9.88477 -6.18992 0
-8.2372 -6.18977 0
-6.59025 -6.19027 0
-4.94201 -6.19079 0
-3.2953 -6.18976 0
-1.64607 -6.19216 0
0 -6.19193 0
-1101.2 121.219 0
-1101.16 112.215 0
-1101.1 103.407 0
-1101.02 94.8689 0
-1100.93 86.6279 0
-1100.85 78.6718 0
-1100.77 70.981 0
-1100.66 63.5778 0
-1100.51 56.5046 0
-1100.36 49.7857 0
-1100.18 43.4266 0
-1100 37.4284 0
-1099.79 31.7901 0
-1099.57 26.5036 0
-1099.32 21.558 0
-1099.05 16.9415 0
-1098.75 12.6361 0
-1098.42 8.62411 0
-1098.06 4.88841 0
-1097.66 1.41007 0
-1097.22 -1.82613 0
-1096.76 -4.83485 0
-1096.25 -7.63125 0
-1095.72 -10.2285 0
-1095.15 -12.6369 0
-1094.55 -14.8693 0
-1093.93 -16.9332 0
-1093.27 -18.8389 0
-1092.59 -20.5939 0
-1091.88 -22.2047 0
-1091.15 -23.679 0
-1090.39 -25.0218 0
-1089.61 -26.2384 0
-1088.8 -27.3323 0
-1087.98 -28.3104 0
-1087.12 -29.1749 0
-1086.25 -29.9318 0
-1085.36 -30.5844 0
-1084.44 -31.1359 0
-1083.5 -31.5915 0
-1082.53 -31.9529 0
-1081.55 -32.2248 0
-1080.54 -32.4115 0
-1079.51 -32.5157 0
-1078.45 -32.5405 0
-1077.38 -32.4912 0
-1076.28 -32.3709 0
-1075.16 -32.1832 0
-1074.01 -31.9304 0
-1072.84 -31.6167 0
-1071.66 -31.2466 0
-1070.45 -30.8223 0
-1069.21 -30.3474 0
-1067.96 -29.8256 0
-1066.69 -29.26 0
-1065.39 -28.6533 0
-1064.08 -28.0089 0
-1062.74 -27.3289 0
-1061.39 -26.6176 0
-1060.01 -25.8776 0
-1058.62 -25.1105 0
-1057.21 -24.3185 0
-1055.78 -23.5061 0
-1054.34 -22.6728 0
-1052.88 -21.8246 0
-1051.4 -20.9616 0
-1049.9 -20.0853 0
-1048.39 -19.1999 0
-1046.87 -18.3059 0
-1045.33 -17.4066 0
-1043.78 -16.5015 0
-1042.21 -15.5945 0
-1040.63 -14.686 0
-1039.04 -13.7769 0
-1037.43 -12.8707 0
-1035.82 -11.9674 0
-1034.19 -11.0695 0
-1032.55 -10.1784 0
-1030.9 -9.29325 0
-1029.24 -8.41688 0
-1027.57 -7.55115 0
-1025.89 -6.69586 0
-1024.21 -5.85236 0
-1022.51 -5.02184 0
-1020.81 -4.20437 0
-1019.1 -3.40107 0
-1017.38 -2.61295 0
-1015.66 -1.84123 0
-1013.93 -1.08563 0
-1012.19 -0.348031 0
-1010.45 0.373621 0
-1008.7 1.07605 0
-1006.95 1.76056 0
-1005.19 2.42582 0
-1003.43 3.07104 0
-1001.67 3.69703 0
-999.9 4.30231 0
-998.128 4.8869 0
-996.353 5.45187 0
-994.575 5.99568 0
-992.795 6.51839 0
-991.013 7.02024 0
-989.229 7.50031 0
-987.443 7.95797 0
-985.655 8.39517 0
-983.866 8.81188 0
-982.077 9.20604 0
-980.286 9.57947 0
-978.495 9.93135 0
-976.703 10.2621 0
-974.912 10.5718 0
-973.12 10.8607 0
-971.33 11.1294 0
-969.54 11.3775 0
-967.751 11.6051 0
-965.962 11.8125 0
-964.174 11.9998 0
-962.387 12.1675 0
-960.602 12.3162 0
-958.817 12.4456 0
-957.035 12.5564 0
-955.255 12.6489 0
-953.476 12.7232 0
-951.699 12.7796 0
-949.924 12.8183 0
-948.152 12.8397 0
-946.381 12.8451 0
-944.614 12.8353 0
-942.849 12.8088 0
-941.086 12.7661 0
-939.326 12.7092 0
-937.568 12.6375 0
-935.813 12.5513 0
-934.061 12.4512 0
-932.312 12.3379 0
-930.566 12.2113 0
-928.823 12.0726 0
-927.082 11.9218 0
-925.344 11.7586 0
-923.61 11.5849 0
-921.879 11.4001 0
-920.15 11.2049 0
-918.425 11.0002 0
-916.703 10.7853 0
-914.983 10.5622 0
-913.266 10.3302 0
-911.553 10.0894 0
-909.842 9.84194 0
-908.135 9.58701 0
-906.431 9.32448 0
-904.73 9.05679 0
-903.032 8.78305 0
-901.337 8.50338 0
-899.644 8.21904 0
-897.955 7.92933 0
-896.269 7.6348 0
-894.586 7.33598 0
-892.905 7.03451 0
-891.227 6.73043 0
-889.551 6.42325 0
-887.879 6.11329 0
-886.209 5.80139 0
-884.542 5.48804 0
-882.878 5.17329 0
-881.216 4.8574 0
-879.557 4.54111 0
-877.9 4.22512 0
-876.246 3.90888 0
-874.593 3.59272 0
-872.943 3.27745 0
-871.294 2.96268 0
-869.649 2.64895 0
-868.005 2.33719 0
-866.363 2.0269 0
-864.724 1.71825 0
-863.086 1.4126 0
-861.45 1.1094 0
-859.816 0.808939 0
-858.183 0.511773 0
-856.552 0.217554 0
-854.923 -0.0734636 0
-853.295 -0.360728 0
-851.669 -0.644586 0
-850.043 -0.924207 0
-848.42 -1.19909 0
-846.798 -1.47056 0
-845.176 -1.73774 0
-843.555 -2.0004 0
-841.936 -2.25827 0
-840.319 -2.51089 0
-838.702 -2.75853 0
-837.086 -3.00116 0
-835.471 -3.23794 0
-833.856 -3.46956 0
-832.243 -3.69614 0
-830.631 -3.91748 0
-829.019 -4.13243 0
-827.408 -4.34397 0
-825.797 -4.54724 0
-824.186 -4.74566 0
-822.577 -4.93954 0
-820.966 -5.126 0
-819.357 -5.30678 0
-817.748 -5.48226 0
-816.14 -5.65189 0
-814.531 -5.81557 0
-812.923 -5.97346 0
-811.315 -6.12504 0
-809.707 -6.27177 0
-808.098 -6.41144 0
-806.49 -6.5459 0
-804.881 -6.67534 0
-803.273 -6.798 0
-801.665 -6.91544 0
-800.057 -7.02706 0
-798.448 -7.13257 0
-796.839 -7.23205 0
-795.229 -7.32667 0
-793.62 -7.4153 0
-792.01 -7.49863 0
-790.399 -7.57626 0
-788.787 -7.64949 0
-787.176 -7.71612 0
-785.565 -7.77818 0
-783.953 -7.83565 0
-782.341 -7.88763 0
-780.728 -7.93551 0
-779.114 -7.97801 0
-777.5 -8.01562 0
-775.885 -8.04754 0
-774.27 -8.07589 0
-772.654 -8.10015 0
-771.037 -8.11942 0
-769.42 -8.13368 0
-767.803 -8.14517 0
-766.185 -8.15166 0
-764.566 -8.15247 0
-762.946 -8.1515 0
-761.326 -8.14625 0
-759.705 -8.13784 0
-758.083 -8.12605 0
-756.461 -8.11002 0
-754.838 -8.09066 0
-753.214 -8.06769 0
-751.591 -8.04192 0
-749.965 -8.01278 0
-748.339 -7.98105 0
-746.712 -7.94622 0
-745.084 -7.90842 0
-743.455 -7.86845 0
-741.826 -7.82544 0
-740.196 -7.77968 0
-738.566 -7.73223 0
-736.934 -7.68209 0
-735.302 -7.63036 0
-733.669 -7.57677 0
-732.035 -7.5212 0
-730.401 -7.46356 0
-728.766 -7.40543 0
-727.131 -7.34522 0
-725.494 -7.28402 0
-723.857 -7.22072 0
-722.22 -7.15606 0
-720.581 -7.09043 0
-718.941 -7.02397 0
-717.301 -6.95536 0
-715.661 -6.88715 0
-714.02 -6.81701 0
-712.377 -6.74681 0
-710.734 -6.67657 0
-709.09 -6.60565 0
-707.447 -6.53359 0
-705.801 -6.46065 0
-704.156 -6.38838 0
-702.51 -6.31634 0
-700.863 -6.24436 0
-699.217 -6.17165 0
-697.57 -6.09829 0
-695.922 -6.02564 0
-694.274 -5.9534 0
-692.624 -5.88138 0
-690.975 -5.80983 0
-689.324 -5.73848 0
-687.673 -5.6677 0
-686.023 -5.59786 0
-684.373 -5.5289 0
-682.722 -5.45988 0
-681.069 -5.39158 0
-679.417 -5.32383 0
-677.763 -5.25724 0
-676.11 -5.18993 0
-674.455 -5.12459 0
-672.801 -5.06069 0
-671.147 -4.99749 0
-669.492 -4.93635 0
-667.837 -4.87531 0
-666.181 -4.8154 0
-664.525 -4.75747 0
-662.869 -4.70078 0
-661.213 -4.64414 0
-659.557 -4.58889 0
-657.9 -4.53612 0
-656.244 -4.48309 0
-654.587 -4.43067 0
-652.93 -4.38089 0
-651.272 -4.3324 0
-649.614 -4.28541 0
-647.956 -4.24098 0
-646.298 -4.19613 0
-644.64 -4.15354 0
-642.983 -4.11153 0
-641.325 -4.07118 0
-639.666 -4.03436 0
-638.007 -3.99761 0
-636.347 -3.96154 0
-634.689 -3.92783 0
-633.029 -3.89596 0
-631.371 -3.86542 0
-629.711 -3.8368 0
-628.053 -3.80886 0
-626.394 -3.7836 0
-624.734 -3.76007 0
-623.074 -3.73594 0
-621.417 -3.71434 0
-619.758 -3.6939 0
-618.099 -3.67505 0
-616.44 -3.65735 0
-614.781 -3.64085 0
-613.122 -3.6272 0
-611.463 -3.61409 0
-609.806 -3.60348 0
-608.146 -3.59458 0
-606.487 -3.5866 0
-604.829 -3.58059 0
-603.171 -3.57327 0
-601.513 -3.569 0
-599.854 -3.5666 0
-598.197 -3.56624 0
-596.539 -3.56501 0
-594.882 -3.56605 0
-593.225 -3.56763 0
-591.567 -3.57236 0
-589.91 -3.5783 0
-588.253 -3.58356 0
-586.596 -3.5906 0
-584.938 -3.6 0
-583.283 -3.6086 0
-581.627 -3.62114 0
-579.97 -3.63242 0
-578.314 -3.64605 0
-576.658 -3.65969 0
-575.003 -3.67601 0
-573.348 -3.69363 0
-571.691 -3.70946 0
-570.037 -3.7276 0
-568.382 -3.74646 0
-566.727 -3.76708 0
-565.071 -3.78874 0
-563.417 -3.80991 0
-561.764 -3.8331 0
-560.109 -3.85566 0
-558.456 -3.87966 0
-556.804 -3.90375 0
-555.149 -3.92945 0
-553.496 -3.95581 0
-551.843 -3.98285 0
-550.191 -4.0097 0
-548.539 -4.03671 0
-546.886 -4.06466 0
-545.234 -4.09442 0
-543.582 -4.1229 0
-541.929 -4.15484 0
-540.278 -4.18643 0
-538.626 -4.21593 0
-536.976 -4.24746 0
-535.324 -4.27852 0
-533.674 -4.31064 0
-532.024 -4.34096 0
-530.373 -4.37291 0
-528.722 -4.40523 0
-527.071 -4.43914 0
-525.42 -4.47175 0
-523.771 -4.50615 0
-522.122 -4.53783 0
-520.473 -4.57086 0
-518.826 -4.60352 0
-517.177 -4.63714 0
-515.529 -4.6711 0
-513.88 -4.70483 0
-512.23 -4.73719 0
-510.582 -4.76976 0
-508.933 -4.80244 0
-507.285 -4.83573 0
-505.637 -4.86804 0
-503.989 -4.90032 0
-502.342 -4.93367 0
-500.696 -4.96574 0
-499.049 -4.99836 0
-497.402 -5.03231 0
-495.755 -5.06586 0
-494.109 -5.0976 0
-492.462 -5.12956 0
-490.815 -5.15936 0
-489.17 -5.1897 0
-487.522 -5.21958 0
-485.876 -5.24948 0
-484.231 -5.27931 0
-482.585 -5.3099 0
-480.939 -5.33848 0
-479.294 -5.36655 0
-477.65 -5.39486 0
-476.005 -5.42332 0
-474.359 -5.45079 0
-472.714 -5.47722 0
-471.069 -5.50351 0
-469.422 -5.53102 0
-467.777 -5.55741 0
-466.133 -5.58099 0
-464.488 -5.60616 0
-462.843 -5.62973 0
-461.198 -5.65427 0
-459.553 -5.67825 0
-457.908 -5.70113 0
-456.264 -5.72422 0
-454.62 -5.74582 0
-452.976 -5.76735 0
-451.332 -5.78788 0
-449.69 -5.80839 0
-448.046 -5.82962 0
-446.4 -5.84858 0
-444.755 -5.86725 0
-443.112 -5.88587 0
-441.468 -5.90237 0
-439.823 -5.91868 0
-438.18 -5.9337 0
-436.536 -5.94905 0
-434.891 -5.96399 0
-433.247 -5.97988 0
-431.604 -5.99453 0
-429.961 -6.00795 0
-428.317 -6.02129 0
-426.673 -6.03546 0
-425.03 -6.04759 0
-423.386 -6.05909 0
-421.741 -6.06882 0
-420.098 -6.07737 0
-418.454 -6.08789 0
-416.809 -6.09579 0
-415.165 -6.10199 0
-413.52 -6.11228 0
-411.877 -6.11882 0
-410.234 -6.12568 0
-408.591 -6.13076 0
-406.946 -6.13775 0
-405.303 -6.14148 0
-403.66 -6.14528 0
-402.015 -6.1484 0
-400.371 -6.15276 0
-398.726 -6.15419 0
-397.082 -6.15575 0
-395.436 -6.1563 0
-393.792 -6.15745 0
-392.148 -6.15763 0
-390.503 -6.15751 0
-388.859 -6.15845 0
-387.216 -6.156 0
-385.573 -6.15659 0
-383.927 -6.15237 0
-382.282 -6.15104 0
-380.636 -6.14815 0
-378.992 -6.1455 0
-377.346 -6.14138 0
-375.7 -6.13675 0
-374.057 -6.13162 0
-372.412 -6.12567 0
-370.766 -6.12081 0
-369.121 -6.11556 0
-367.477 -6.11067 0
-365.831 -6.1031 0
-364.186 -6.09759 0
-362.54 -6.08814 0
-360.895 -6.08059 0
-359.25 -6.07181 0
-357.605 -6.06272 0
-355.96 -6.05516 0
-354.316 -6.04602 0
-352.669 -6.03552 0
-351.023 -6.02631 0
-349.379 -6.01732 0
-347.731 -6.00723 0
-346.084 -5.99614 0
-344.438 -5.98466 0
-342.791 -5.97532 0
-341.145 -5.96349 0
-339.5 -5.95093 0
-337.853 -5.93869 0
-336.207 -5.92611 0
-334.561 -5.91505 0
-332.916 -5.90354 0
-331.268 -5.89238 0
-329.623 -5.87847 0
-327.977 -5.86522 0
-326.328 -5.8504 0
-324.682 -5.83648 0
-323.035 -5.82398 0
-321.39 -5.80925 0
-319.743 -5.79659 0
-318.095 -5.78348 0
-316.448 -5.76935 0
-314.8 -5.75466 0
-313.154 -5.74001 0
-311.507 -5.72242 0
-309.859 -5.70796 0
-308.212 -5.69352 0
-306.565 -5.67903 0
-304.918 -5.66361 0
-303.27 -5.64949 0
-301.623 -5.6348 0
-299.976 -5.61905 0
-298.328 -5.60337 0
-296.68 -5.58949 0
-295.033 -5.57463 0
-293.386 -5.56034 0
-291.739 -5.54397 0
-290.092 -5.52914 0
-288.443 -5.51401 0
-286.795 -5.49821 0
-285.146 -5.48225 0
-283.499 -5.4659 0
-281.849 -5.45146 0
-280.201 -5.43604 0
-278.553 -5.41971 0
-276.907 -5.40388 0
-275.259 -5.39029 0
-273.612 -5.37442 0
-271.963 -5.36012 0
-270.316 -5.34542 0
-268.668 -5.32956 0
-267.019 -5.31568 0
-265.371 -5.30158 0
-263.722 -5.28607 0
-262.073 -5.27135 0
-260.423 -5.25856 0
-258.775 -5.2425 0
-257.126 -5.22901 0
-255.478 -5.21486 0
-253.831 -5.20119 0
-252.181 -5.18989 0
-250.533 -5.17594 0
-248.884 -5.16239 0
-247.236 -5.14682 0
-245.587 -5.13418 0
-243.938 -5.1221 0
-242.29 -5.10947 0
-240.641 -5.09639 0
-238.991 -5.08447 0
-237.342 -5.07195 0
-235.693 -5.05888 0
-234.045 -5.04574 0
-232.397 -5.03429 0
-230.748 -5.02391 0
-229.099 -5.01041 0
-227.449 -5.00054 0
-225.801 -4.98843 0
-224.152 -4.97713 0
-222.504 -4.96375 0
-220.855 -4.9518 0
-219.206 -4.94286 0
-217.556 -4.93283 0
-215.907 -4.92051 0
-214.258 -4.91023 0
-212.61 -4.89905 0
-210.961 -4.89113 0
-209.313 -4.88081 0
-207.664 -4.87296 0
-206.015 -4.86175 0
-204.366 -4.85027 0
-202.718 -4.84061 0
-201.069 -4.83278 0
-199.42 -4.82471 0
-197.771 -4.81648 0
-196.123 -4.807 0
-194.474 -4.79733 0
-192.825 -4.78848 0
-191.176 -4.78127 0
-189.526 -4.77392 0
-187.878 -4.76678 0
-186.229 -4.7601 0
-184.578 -4.75304 0
-182.93 -4.74472 0
-181.28 -4.7374 0
-179.631 -4.72887 0
-177.981 -4.72333 0
-176.332 -4.71478 0
-174.684 -4.70949 0
-173.036 -4.70397 0
-171.388 -4.69606 0
-169.74 -4.68887 0
-168.091 -4.68377 0
-166.442 -4.67967 0
-164.792 -4.67431 0
-163.143 -4.66772 0
-161.493 -4.66288 0
-159.845 -4.65638 0
-158.197 -4.65265 0
-156.549 -4.64826 0
-154.899 -4.6442 0
-153.251 -4.63851 0
-151.603 -4.63432 0
-149.952 -4.62923 0
-148.303 -4.626 0
-146.656 -4.62029 0
-145.007 -4.61699 0
-143.357 -4.61341 0
-141.707 -4.60914 0
-140.06 -4.60474 0
-138.413 -4.60417 0
-136.764 -4.60062 0
-135.115 -4.59883 0
-133.467 -4.59377 0
-131.82 -4.59051 0
-130.171 -4.58677 0
-128.523 -4.58491 0
-126.875 -4.5825 0
-125.224 -4.58154 0
-123.577 -4.57888 0
-121.927 -4.57816 0
-120.279 -4.57575 0
-118.633 -4.57403 0
-116.985 -4.57346 0
-115.337 -4.57178 0
-113.689 -4.56954 0
-112.041 -4.56741 0
-110.392 -4.56717 0
-108.743 -4.56424 0
-107.095 -4.56211 0
-105.448 -4.56125 0
-103.799 -4.56088 0
-102.152 -4.55981 0
-100.504 -4.55768 0
-98.8557 -4.55721 0
-97.2072 -4.55623 0
-95.5576 -4.55449 0
-93.9105 -4.55413 0
-92.2622 -4.5565 0
-90.6151 -4.55456 0
-88.9659 -4.55484 0
-87.3191 -4.55357 0
-85.6705 -4.55296 0
-84.0239 -4.55231 0
-82.3768 -4.55204 0
-80.7276 -4.55258 0
-79.0792 -4.5521 0
-77.4306 -4.5542 0
-75.7834 -4.55232 0
-74.137 -4.55126 0
-72.4905 -4.55221 0
-70.842 -4.55097 0
-69.1931 -4.54977 0
-67.5451 -4.54948 0
-65.8983 -4.54912 0
-64.251 -4.54778 0
-62.6054 -4.54836 0
-60.9571 -4.54942 0
-59.3099 -4.54811 0
-57.6615 -4.54852 0
-56.0133 -4.54813 0
-54.3645 -4.54699 0
-52.7168 -4.54644 0
-51.0699 -4.54562 0
-49.4226 -4.54588 0
-47.7751 -4.54654 0
-46.1255 -4.54646 0
-44.4776 -4.54731 0
-42.8306 -4.54782 0
-41.1843 -4.54833 0
-39.5365 -4.5475 0
-37.89 -4.54875 0
-36.2441 -4.54677 0
-34.5962 -4.54869 0
-32.9481 -4.54826 0
-31.301 -4.54742 0
-29.6525 -4.54783 0
-28.0068 -4.54668 0
-26.3596 -4.54714 0
-24.7133 -4.54855 0
-23.0652 -4.54628 0
-21.4162 -4.54601 0
-19.7696 -4.54559 0
-18.1226 -4.54556 0
-16.4753 -4.54658 0
-14.8269 -4.54827 0
-13.1792 -4.54771 0
-11.5324 -4.54635 0
-9.88645 -4.54599 0
-8.23797 -4.54619 0
-6.59186 -4.54741 0
-4.94439 -4.54632 0
-3.29628 -4.54743 0
-1.64763 -4.54844 0
0 -4.5484 0
-1110.5 121.677 0
-1110.07 112.512 0
-1109.77 103.728 0
-1109.44 95.2089 0
-1109.09 86.9647 0
-1108.72 78.9991 0
-1108.34 71.3237 0
-1107.92 63.9522 0
-1107.46 56.9026 0
-1106.97 50.1965 0
-1106.46 43.8476 0
-1105.93 37.8593 0
-1105.38 32.2316 0
-1104.81 26.9571 0
-1104.23 22.0253 0
-1103.64 17.4247 0
-1103.04 13.1362 0
-1102.41 9.14356 0
-1101.78 5.42911 0
-1101.12 1.97455 0
-1100.45 -1.23768 0
-1099.75 -4.22173 0
-1099.04 -6.99394 0
-1098.3 -9.56639 0
-1097.55 -11.9512 0
-1096.77 -14.1591 0
-1095.98 -16.2014 0
-1095.16 -18.0849 0
-1094.33 -19.818 0
-1093.48 -21.4079 0
-1092.61 -22.8625 0
-1091.72 -24.1846 0
-1090.81 -25.3806 0
-1089.89 -26.456 0
-1088.94 -27.4132 0
-1087.98 -28.2589 0
-1087 -28.9955 0
-1086 -29.6276 0
-1084.98 -30.1596 0
-1083.95 -30.5943 0
-1082.89 -30.9355 0
-1081.82 -31.1869 0
-1080.73 -31.3523 0
-1079.61 -31.4357 0
-1078.48 -31.4403 0
-1077.33 -31.3712 0
-1076.17 -31.2293 0
-1074.98 -31.0215 0
-1073.77 -30.7473 0
-1072.54 -30.4137 0
-1071.3 -30.0232 0
-1070.04 -29.579 0
-1068.76 -29.0853 0
-1067.46 -28.543 0
-1066.14 -27.9584 0
-1064.8 -27.3331 0
-1063.45 -26.6697 0
-1062.08 -25.9721 0
-1060.7 -25.243 0
-1059.29 -24.4849 0
-1057.88 -23.7007 0
-1056.44 -22.8928 0
-1054.99 -22.0634 0
-1053.53 -21.2153 0
-1052.05 -20.3508 0
-1050.56 -19.4721 0
-1049.05 -18.5822 0
-1047.53 -17.6825 0
-1046 -16.7743 0
-1044.45 -15.8612 0
-1042.9 -14.9434 0
-1041.33 -14.0235 0
-1039.75 -13.1027 0
-1038.15 -12.1824 0
-1036.55 -11.2644 0
-1034.94 -10.3509 0
-1033.31 -9.4432 0
-1031.68 -8.54098 0
-1030.04 -7.64614 0
-1028.39 -6.7606 0
-1026.73 -5.88604 0
-1025.06 -5.02276 0
-1023.39 -4.17154 0
-1021.7 -3.33347 0
-1020.02 -2.50861 0
-1018.32 -1.69764 0
-1016.62 -0.903298 0
-1014.91 -0.125586 0
-1013.19 0.635719 0
-1011.47 1.37962 0
-1009.75 2.10609 0
-1008.02 2.8134 0
-1006.29 3.50203 0
-1004.55 4.17142 0
-1002.81 4.8213 0
-1001.06 5.45075 0
-999.312 6.05959 0
-997.56 6.64728 0
-995.805 7.21425 0
-994.048 7.76102 0
-992.288 8.28613 0
-990.526 8.78965 0
-988.763 9.27154 0
-986.998 9.7311 0
-985.232 10.1695 0
-983.464 10.5867 0
-981.694 10.9822 0
-979.925 11.3563 0
-978.155 11.7084 0
-976.384 12.0394 0