<?xml version="1.0"?>
<VTKFile type="StructuredGrid"  version="0.1" byte_order="LittleEndian" compressor="vtkZLibDataCompressor">
  <StructuredGrid WholeExtent="0 700 0 30 0 0">
    <Piece Extent="0 700 0 30 0 0">
      <PointData Vectors="Velocity">
        <DataArray type="Float32" Name="Velocity" NumberOfComponents="3" format="ascii">
-1093.9 72.6826 0
-1094.05 65.3732 0
-1094.27 58.241 0
-1094.52 51.3991 0
-1094.76 44.8812 0
-1094.95 38.6314 0
-1095.14 32.5965 0
-1095.36 26.8324 0
-1095.59 21.4174 0
-1095.82 16.3802 0
-1096.03 11.7215 0
-1096.21 7.43442 0
-1096.35 3.50952 0
-1096.46 -0.0666156 0
-1096.52 -3.31135 0
-1096.52 -6.24234 0
-1096.46 -8.88247 0
-1096.34 -11.2526 0
-1096.15 -13.3717 0
-1095.89 -15.2605 0
-1095.58 -16.9384 0
-1095.2 -18.4207 0
-1094.76 -19.722 0
-1094.26 -20.8597 0
-1093.71 -21.8459 0
-1093.1 -22.6933 0
-1092.45 -23.4117 0
-1091.75 -24.0115 0
-1091.01 -24.5015 0
-1090.23 -24.8886 0
-1089.41 -25.1801 0
-1088.55 -25.3834 0
-1087.66 -25.504 0
-1086.74 -25.5491 0
-1085.78 -25.5208 0
-1084.78 -25.4263 0
-1083.76 -25.2687 0
-1082.71 -25.0523 0
-1081.62 -24.7824 0
-1080.51 -24.4615 0
-1079.37 -24.0944 0
-1078.2 -23.6828 0
-1077 -23.2321 0
-1075.77 -22.7445 0
-1074.51 -22.2237 0
-1073.23 -21.6734 0
-1071.93 -21.0972 0
-1070.59 -20.4974 0
-1069.23 -19.8765 0
-1067.85 -19.2393 0
-1066.45 -18.5865 0
-1065.02 -17.9211 0
-1063.57 -17.2465 0
-1062.1 -16.5645 0
-1060.61 -15.8776 0
-1059.1 -15.1883 0
-1057.57 -14.4971 0
-1056.02 -13.8076 0
-1054.45 -13.1207 0
-1052.87 -12.4389 0
-1051.28 -11.7634 0
-1049.66 -11.0957 0
-1048.04 -10.4362 0
-1046.4 -9.78858 0
-1044.75 -9.15296 0
-1043.08 -8.52918 0
-1041.4 -7.9207 0
-1039.72 -7.32668 0
-1038.02 -6.74869 0
-1036.31 -6.18746 0
-1034.6 -5.64194 0
-1032.88 -5.11653 0
-1031.15 -4.60872 0
-1029.41 -4.1192 0
-1027.67 -3.64923 0
-1025.92 -3.19972 0
-1024.17 -2.76887 0
-1022.41 -2.35958 0
-1020.65 -1.96948 0
-1018.88 -1.60101 0
-1017.12 -1.25179 0
-1015.35 -0.924065 0
-1013.57 -0.617656 0
-1011.8 -0.331042 0
-1010.02 -0.0649484 0
-1008.25 0.181098 0
-1006.47 0.406327 0
-1004.69 0.611256 0
-1002.92 0.797712 0
-1001.14 0.964057 0
-999.364 1.11189 0
-997.589 1.24143 0
-995.816 1.35266 0
-994.045 1.44575 0
-992.275 1.52086 0
-990.507 1.57947 0
-988.742 1.62103 0
-986.978 1.64662 0
-985.218 1.65691 0
-983.461 1.6525 0
-981.708 1.63199 0
-979.957 1.59753 0
-978.21 1.5506 0
-976.466 1.49101 0
-974.726 1.41686 0
-972.99 1.33201 0
-971.257 1.23643 0
-969.527 1.12955 0
-967.802 1.0121 0
-966.081 0.883906 0
-964.364 0.747801 0
-962.651 0.602925 0
-960.943 0.449401 0
-959.238 0.288432 0
-957.537 0.120721 0
-955.84 -0.0521681 0
-954.147 -0.232147 0
-952.458 -0.418119 0
-950.773 -0.607469 0
-949.092 -0.801569 0
-947.414 -0.999245 0
-945.741 -1.20092 0
-944.07 -1.40491 0
-942.404 -1.61174 0
-940.742 -1.8204 0
-939.083 -2.03048 0
-937.428 -2.24152 0
-935.776 -2.45362 0
-934.128 -2.66497 0
-932.482 -2.87737 0
-930.839 -3.08753 0
-929.2 -3.29811 0
-927.563 -3.50663 0
-925.93 -3.71374 0
-924.3 -3.91822 0
-922.672 -4.12095 0
-921.047 -4.32208 0
-919.424 -4.51877 0
-917.803 -4.71253 0
-916.184 -4.90335 0
-914.567 -5.09083 0
-912.952 -5.27387 0
-911.34 -5.45395 0
-909.728 -5.62878 0
-908.119 -5.79986 0
-906.511 -5.96518 0
-904.906 -6.12669 0
-903.3 -6.28265 0
-901.697 -6.43398 0
-900.095 -6.58071 0
-898.494 -6.72166 0
-896.893 -6.85662 0
-895.295 -6.98615 0
-893.696 -7.1113 0
-892.098 -7.23047 0
-890.501 -7.3441 0
-888.904 -7.45146 0
-887.308 -7.55388 0
-885.712 -7.65022 0
-884.115 -7.74125 0
-882.52 -7.82673 0
-880.924 -7.90719 0
-879.328 -7.98097 0
-877.733 -8.05011 0
-876.138 -8.11273 0
-874.543 -8.16959 0
-872.947 -8.22152 0
-871.35 -8.2677 0
-869.753 -8.30877 0
-868.157 -8.34554 0
-866.56 -8.37694 0
-864.961 -8.40188 0
-863.364 -8.42282 0
-861.765 -8.43875 0
-860.166 -8.45011 0
-858.566 -8.45754 0
-856.964 -8.45924 0
-855.362 -8.45778 0
-853.759 -8.45093 0
-852.156 -8.43953 0
-850.552 -8.42556 0
-848.946 -8.40686 0
-847.34 -8.38461 0
-845.733 -8.35916 0
-844.125 -8.33027 0
-842.516 -8.29739 0
-840.906 -8.26164 0
-839.296 -8.22268 0
-837.685 -8.18128 0
-836.071 -8.13644 0
-834.458 -8.08934 0
-832.843 -8.03831 0
-831.227 -7.9877 0
-829.609 -7.93336 0
-827.991 -7.87674 0
-826.373 -7.81838 0
-824.753 -7.75802 0
-823.131 -7.69574 0
-821.509 -7.63283 0
-819.886 -7.56852 0
-818.263 -7.50339 0
-816.638 -7.43686 0
-815.011 -7.36742 0
-813.384 -7.29856 0
-811.756 -7.22947 0
-810.127 -7.16068 0
-808.497 -7.08882 0
-806.866 -7.01692 0
-805.234 -6.946 0
-803.602 -6.87414 0
-801.969 -6.80206 0
-800.335 -6.7302 0
-798.699 -6.65956 0
-797.064 -6.58826 0
-795.428 -6.51626 0
-793.791 -6.44586 0
-792.152 -6.37744 0
-790.515 -6.30713 0
-788.875 -6.23765 0
-787.237 -6.1685 0
-785.596 -6.09957 0
-783.955 -6.03268 0
-782.313 -5.96813 0
-780.67 -5.90239 0
-779.027 -5.83931 0
-777.384 -5.77562 0
-775.741 -5.71486 0
-774.097 -5.65319 0
-772.452 -5.59393 0
-770.808 -5.53746 0
-769.163 -5.48059 0
-767.517 -5.42568 0
-765.871 -5.37301 0
-764.226 -5.32036 0
-762.578 -5.26947 0
-760.931 -5.22034 0
-759.284 -5.17252 0
-757.638 -5.12552 0
-755.99 -5.08133 0
-754.342 -5.0371 0
-752.693 -4.99537 0
-751.047 -4.95564 0
-749.399 -4.91843 0
-747.752 -4.88013 0
-746.104 -4.84578 0
-744.455 -4.81195 0
-742.806 -4.7802 0
-741.159 -4.749 0
-739.51 -4.72094 0
-737.861 -4.6936 0
-736.214 -4.66933 0
-734.566 -4.64474 0
-732.918 -4.62198 0
-731.27 -4.59985 0
-729.622 -4.58172 0
-727.974 -4.5634 0
-726.327 -4.54614 0
-724.678 -4.53088 0
-723.032 -4.51699 0
-721.384 -4.50597 0
-719.737 -4.4944 0
-718.09 -4.4841 0
-716.444 -4.47718 0
-714.798 -4.4689 0
-713.151 -4.46483 0
-711.504 -4.46019 0
-709.857 -4.45636 0
-708.212 -4.45515 0
-706.567 -4.45372 0
-704.923 -4.453 0
-703.277 -4.45334 0
-701.633 -4.45577 0
-699.989 -4.45871 0
-698.346 -4.46289 0
-696.702 -4.47006 0
-695.059 -4.47473 0
-693.415 -4.48151 0
-691.772 -4.48935 0
-690.13 -4.4969 0
-688.488 -4.50748 0
-686.844 -4.51741 0
-685.202 -4.52935 0
-683.561 -4.5397 0
-681.921 -4.55128 0
-680.278 -4.56448 0
-678.638 -4.57656 0
-676.998 -4.5909 0
-675.359 -4.60475 0
-673.72 -4.61961 0
-672.08 -4.63385 0
-670.44 -4.65014 0
-668.8 -4.66544 0
-667.162 -4.68036 0
-665.524 -4.69709 0
-663.886 -4.7129 0
-662.247 -4.72944 0
-660.61 -4.74664 0
-658.973 -4.76411 0
-657.336 -4.78014 0
-655.699 -4.79632 0
-654.062 -4.81362 0
-652.425 -4.83005 0
-650.789 -4.84757 0
-649.154 -4.86513 0
-647.518 -4.88146 0
-645.882 -4.89724 0
-644.246 -4.91393 0
-642.612 -4.92998 0
-640.978 -4.94583 0
-639.343 -4.96177 0
-637.706 -4.97755 0
-636.074 -4.99196 0
-634.439 -5.00766 0
-632.804 -5.02336 0
-631.17 -5.03561 0
-629.536 -5.05181 0
-627.902 -5.06432 0
-626.269 -5.07844 0
-624.636 -5.09002 0
-623.003 -5.10212 0
-621.369 -5.11476 0
-619.736 -5.12741 0
-618.104 -5.13959 0
-616.471 -5.14949 0
-614.838 -5.15942 0
-613.205 -5.16934 0
-611.572 -5.17934 0
-609.94 -5.18964 0
-608.308 -5.19841 0
-606.675 -5.20697 0
-605.044 -5.21416 0
-603.412 -5.22202 0
-601.779 -5.22773 0
-600.146 -5.23489 0
-598.514 -5.24064 0
-596.883 -5.24695 0
-595.25 -5.25031 0
-593.616 -5.25331 0
-591.983 -5.25704 0
-590.35 -5.2614 0
-588.719 -5.26517 0
-587.088 -5.26834 0
-585.454 -5.27118 0
-583.823 -5.27264 0
-582.19 -5.27306 0
-580.557 -5.27369 0
-578.924 -5.27401 0
-577.292 -5.27358 0
-575.66 -5.27316 0
-574.027 -5.27195 0
-572.394 -5.27015 0
-570.762 -5.26819 0
-569.129 -5.26585 0
-567.495 -5.26378 0
-565.864 -5.2599 0
-564.231 -5.25796 0
-562.596 -5.25277 0
-560.964 -5.24948 0
-559.331 -5.24577 0
-557.7 -5.2403 0
-556.067 -5.23448 0
-554.432 -5.22761 0
-552.799 -5.22167 0
-551.167 -5.21341 0
-549.534 -5.20763 0
-547.901 -5.20011 0
-546.266 -5.19163 0
-544.633 -5.18497 0
-542.999 -5.17883 0
-541.366 -5.17007 0
-539.733 -5.16296 0
-538.099 -5.15421 0
-536.466 -5.14478 0
-534.832 -5.13531 0
-533.198 -5.12461 0
-531.563 -5.11408 0
-529.929 -5.10435 0
-528.297 -5.09374 0
-526.663 -5.08406 0
-525.028 -5.07405 0
-523.393 -5.06443 0
-521.758 -5.05174 0
-520.122 -5.04266 0
-518.487 -5.03301 0
-516.853 -5.02165 0
-515.218 -5.00996 0
-513.583 -4.99887 0
-511.949 -4.98612 0
-510.312 -4.97598 0
-508.678 -4.96428 0
-507.043 -4.95077 0
-505.405 -4.93918 0
-503.77 -4.92842 0
-502.135 -4.91697 0
-500.499 -4.90689 0
-498.863 -4.89364 0
-497.228 -4.88099 0
-495.593 -4.87096 0
-493.956 -4.85953 0
-492.32 -4.84549 0
-490.683 -4.83595 0
-489.048 -4.82333 0
-487.413 -4.81158 0
-485.777 -4.80078 0
-484.141 -4.78962 0
-482.503 -4.77656 0
-480.868 -4.7673 0
-479.232 -4.75596 0
-477.596 -4.74294 0
-475.959 -4.73323 0
-474.322 -4.724 0
-472.687 -4.71377 0
-471.049 -4.70422 0
-469.413 -4.69235 0
-467.776 -4.68084 0
-466.139 -4.67241 0
-464.503 -4.66137 0
-462.866 -4.65172 0
-461.229 -4.64289 0
-459.592 -4.63289 0
-457.955 -4.62497 0
-456.318 -4.61519 0
-454.681 -4.60618 0
-453.043 -4.59698 0
-451.408 -4.58925 0
-449.772 -4.57958 0
-448.135 -4.57279 0
-446.497 -4.56435 0
-444.861 -4.55558 0
-443.223 -4.54926 0
-441.585 -4.54077 0
-439.949 -4.53297 0
-438.313 -4.52486 0
-436.676 -4.51721 0
-435.04 -4.51062 0
-433.402 -4.50342 0
-431.765 -4.4955 0
-430.129 -4.48966 0
-428.492 -4.48508 0
-426.855 -4.47728 0
-425.215 -4.47216 0
-423.581 -4.46573 0
-421.943 -4.46026 0
-420.306 -4.45276 0
-418.668 -4.45074 0
-417.031 -4.44492 0
-415.393 -4.43874 0
-413.758 -4.43496 0
-412.121 -4.42964 0
-410.485 -4.4277 0
-408.848 -4.42137 0
-407.21 -4.41609 0
-405.572 -4.41197 0
-403.936 -4.40715 0
-402.299 -4.40324 0
-400.662 -4.39864 0
-399.027 -4.39336 0
-397.39 -4.39012 0
-395.75 -4.38727 0
-394.114 -4.38431 0
-392.478 -4.38158 0
-390.842 -4.37778 0
-389.206 -4.37409 0
-387.568 -4.3711 0
-385.932 -4.36968 0
-384.295 -4.36626 0
-382.658 -4.36455 0
-381.022 -4.36202 0
-379.384 -4.36063 0
-377.749 -4.35791 0
-376.112 -4.35706 0
-374.476 -4.35369 0
-372.84 -4.35299 0
-371.202 -4.35094 0
-369.566 -4.3518 0
-367.931 -4.34798 0
-366.295 -4.34612 0
-364.658 -4.34424 0
-363.022 -4.34403 0
-361.385 -4.34236 0
-359.749 -4.34313 0
-358.111 -4.34108 0
-356.477 -4.33959 0
-354.841 -4.34023 0
-353.206 -4.33933 0
-351.567 -4.33898 0
-349.931 -4.33881 0
-348.296 -4.3352 0
-346.659 -4.33576 0
-345.023 -4.33614 0
-343.388 -4.33644 0
-341.753 -4.3345 0
-340.118 -4.33375 0
-338.481 -4.33325 0
-336.843 -4.33216 0
-335.207 -4.33199 0
-333.571 -4.3325 0
-331.938 -4.3329 0
-330.302 -4.33304 0
-328.666 -4.3324 0
-327.031 -4.33335 0
-325.395 -4.33319 0
-323.76 -4.33358 0
-322.123 -4.33344 0
-320.489 -4.33258 0
-318.853 -4.33326 0
-317.217 -4.33228 0
-315.582 -4.33246 0
-313.945 -4.33253 0
-312.31 -4.33197 0
-310.675 -4.33331 0
-309.041 -4.33284 0
-307.405 -4.33064 0
-305.77 -4.3303 0
-304.134 -4.33324 0
-302.497 -4.33076 0
-300.862 -4.33129 0
-299.227 -4.33112 0
-297.592 -4.32995 0
-295.957 -4.33251 0
-294.323 -4.33032 0
-292.687 -4.33055 0
-291.051 -4.32767 0
-289.415 -4.32936 0
-287.782 -4.32883 0
-286.147 -4.32631 0
-284.512 -4.32596 0
-282.874 -4.32535 0
-281.24 -4.32707 0
-279.606 -4.32404 0
-277.97 -4.32197 0
-276.337 -4.32211 0
-274.702 -4.32237 0
-273.066 -4.32129 0
-271.431 -4.3237 0
-269.795 -4.31929 0
-268.16 -4.32006 0
-266.524 -4.31963 0
-264.889 -4.31607 0
-263.253 -4.31626 0
-261.618 -4.31689 0
-259.983 -4.31639 0
-258.348 -4.31531 0
-256.712 -4.3137 0
-255.077 -4.31318 0
-253.443 -4.31242 0
-251.81 -4.31338 0
-250.176 -4.30903 0
-248.539 -4.30868 0
-246.904 -4.30656 0
-245.269 -4.30525 0
-243.634 -4.30301 0
-241.999 -4.30529 0
-240.363 -4.30347 0
-238.725 -4.30238 0
-237.091 -4.30324 0
-235.455 -4.30075 0
-233.82 -4.29917 0
-232.186 -4.29363 0
-230.55 -4.2974 0
-228.916 -4.29397 0
-227.281 -4.29166 0
-225.645 -4.29083 0
-224.011 -4.28884 0
-222.378 -4.28607 0
-220.741 -4.28645 0
-219.106 -4.28599 0
-217.47 -4.28614 0
-215.835 -4.28332 0
-214.198 -4.28395 0
-212.564 -4.27943 0
-210.928 -4.27818 0
-209.295 -4.27516 0
-207.659 -4.27571 0
-206.024 -4.27177 0
-204.387 -4.26989 0
-202.754 -4.26839 0
-201.116 -4.26538 0
-199.481 -4.26495 0
-197.847 -4.26366 0
-196.211 -4.26047 0
-194.578 -4.25943 0
-192.943 -4.25694 0
-191.308 -4.25446 0
-189.672 -4.25209 0
-188.037 -4.25305 0
-186.402 -4.25182 0
-184.766 -4.2507 0
-183.13 -4.24661 0
-181.495 -4.24625 0
-179.86 -4.24654 0
-178.225 -4.24247 0
-176.591 -4.24039 0
-174.954 -4.23926 0
-173.318 -4.23636 0
-171.684 -4.23713 0
-170.048 -4.23558 0
-168.413 -4.23167 0
-166.777 -4.22936 0
-165.141 -4.22812 0
-163.508 -4.22544 0
-161.872 -4.22325 0
-160.237 -4.22352 0
-158.601 -4.22295 0
-156.966 -4.2184 0
-155.33 -4.21661 0
-153.695 -4.21538 0
-152.061 -4.21301 0
-150.427 -4.21189 0
-148.79 -4.20879 0
-147.154 -4.20689 0
-145.518 -4.20842 0
-143.884 -4.20555 0
-142.25 -4.20222 0
-140.615 -4.20106 0
-138.98 -4.20021 0
-137.344 -4.19771 0
-135.708 -4.19681 0
-134.075 -4.19306 0
-132.439 -4.19284 0
-130.803 -4.19062 0
-129.167 -4.19131 0
-127.533 -4.19193 0
-125.897 -4.19222 0
-124.264 -4.19179 0
-122.629 -4.19011 0
-120.993 -4.18842 0
-119.358 -4.18815 0
-117.724 -4.18648 0
-116.088 -4.18645 0
-114.453 -4.18272 0
-112.817 -4.18188 0
-111.18 -4.18236 0
-109.546 -4.17725 0
-107.912 -4.17886 0
-106.278 -4.1759 0
-104.642 -4.17693 0
-103.004 -4.17658 0
-101.371 -4.17496 0
-99.7347 -4.17123 0
-98.1004 -4.17517 0
-96.4677 -4.17532 0
-94.8314 -4.17488 0
-93.1951 -4.17304 0
-91.56 -4.17079 0
-89.9247 -4.17145 0
-88.2904 -4.17244 0
-86.6553 -4.16749 0
-85.0189 -4.16788 0
-83.3845 -4.16558 0
-81.7497 -4.1649 0
-80.116 -4.16487 0
-78.4804 -4.16593 0
-76.8432 -4.1639 0
-75.2081 -4.1622 0
-73.5739 -4.16241 0
-71.9373 -4.16221 0
-70.303 -4.16193 0
-68.6661 -4.16104 0
-67.0316 -4.16066 0
-65.3982 -4.1597 0
-63.7649 -4.15928 0
-62.1268 -4.15801 0
-60.494 -4.1568 0
-58.8569 -4.15585 0
-57.2232 -4.1554 0
-55.5874 -4.15419 0
-53.9521 -4.15581 0
-52.3153 -4.15466 0
-50.6807 -4.15383 0
-49.0474 -4.15363 0
-47.4139 -4.15524 0
-45.7785 -4.15163 0
-44.1444 -4.15017 0
-42.509 -4.14902 0
-40.8739 -4.1506 0
-39.2373 -4.14959 0
-37.6035 -4.15031 0
-35.9685 -4.14989 0
-34.3337 -4.1486 0
-32.6993 -4.1479 0
-31.0645 -4.14853 0
-29.4295 -4.14588 0
-27.7934 -4.14526 0
-26.1568 -4.14533 0
-24.5231 -4.14531 0
-22.8867 -4.14479 0
-21.2511 -4.14383 0
-19.6166 -4.14335 0
-17.9825 -4.14319 0
-16.3487 -4.14381 0
-14.7115 -4.14345 0
-13.0763 -4.14292 0
-11.4422 -4.14443 0
-9.80919 -4.14205 0
-8.17378 -4.1424 0
-6.53721 -4.14313 0
-4.90412 -4.14258 0
-3.27009 -4.14195 0
-1.63508 -4.14247 0
0 -4.1416 0
-1101.22 72.8778 0
-1101.22 65.5151 0
-1101.21 58.3628 0
-1101.16 51.5103 0
-1101.11 44.9833 0
-1101.1 38.7272 0
-1101.07 32.6892 0
-1100.99 26.9234 0
-1100.86 21.5069 0
-1100.71 16.4707 0
-1100.55 11.8172 0
-1100.36 7.54171 0
-1100.15 3.63478 0
-1099.91 0.0843575 0
-1099.65 -3.12696 0
-1099.34 -6.01912 0
-1099 -8.6147 0
-1098.61 -10.9369 0
-1098.18 -13.006 0
-1097.7 -14.8441 0
-1097.17 -16.4713 0
-1096.6 -17.9033 0
-1095.99 -19.1573 0
-1095.33 -20.2484 0
-1094.63 -21.1902 0
-1093.89 -21.9947 0
-1093.11 -22.673 0
-1092.3 -23.2342 0
-1091.45 -23.6876 0
-1090.57 -24.0401 0
-1089.66 -24.2984 0
-1088.72 -24.4694 0
-1087.75 -24.5593 0
-1086.75 -24.5733 0
-1085.72 -24.5158 0
-1084.66 -24.3921 0
-1083.58 -24.2058 0
-1082.47 -23.9614 0
-1081.33 -23.6633 0
-1080.17 -23.3155 0
-1078.98 -22.9207 0
-1077.77 -22.4832 0
-1076.53 -22.0059 0
-1075.27 -21.4929 0
-1073.98 -20.9472 0
-1072.68 -20.3722 0
-1071.34 -19.7714 0
-1069.99 -19.1477 0
-1068.61 -18.5047 0
-1067.21 -17.8445 0
-1065.8 -17.1702 0
-1064.36 -16.4843 0
-1062.9 -15.7894 0
-1061.42 -15.0875 0
-1059.93 -14.3819 0
-1058.41 -13.6739 0
-1056.88 -12.9655 0
-1055.34 -12.2599 0
-1053.78 -11.5572 0
-1052.2 -10.8604 0
-1050.61 -10.1701 0
-1049.01 -9.48807 0
-1047.39 -8.81604 0
-1045.76 -8.1558 0
-1044.12 -7.50809 0
-1042.47 -6.87377 0
-1040.81 -6.25463 0
-1039.14 -5.65106 0
-1037.46 -5.06392 0
-1035.77 -4.49407 0
-1034.07 -3.94163 0
-1032.37 -3.40817 0
-1030.66 -2.89374 0
-1028.94 -2.39823 0
-1027.22 -1.92272 0
-1025.49 -1.46739 0
-1023.75 -1.03337 0
-1022.02 -0.619791 0
-1020.28 -0.226019 0
-1018.53 0.145654 0
-1016.78 0.497331 0
-1015.03 0.827311 0
-1013.28 1.13616 0
-1011.53 1.42412 0
-1009.77 1.69059 0
-1008.02 1.93722 0
-1006.26 2.16295 0
-1004.5 2.36824 0
-1002.74 2.55427 0
-1000.99 2.72053 0
-999.229 2.86716 0
-997.473 2.99565 0
-995.717 3.10518 0
-993.963 3.19749 0
-992.21 3.27017 0
-990.459 3.32616 0
-988.709 3.36625 0
-986.963 3.3894 0
-985.218 3.39736 0
-983.475 3.38889 0
-981.736 3.36567 0
-979.999 3.3294 0
-978.265 3.27888 0
-976.534 3.21509 0
-974.806 3.13855 0
-973.08 3.05037 0
-971.359 2.95073 0
-969.64 2.84045 0
-967.925 2.719 0
-966.213 2.58795 0
-964.505 2.44801 0
-962.8 2.29936 0
-961.099 2.14151 0
-959.401 1.97719 0
-957.706 1.80659 0
-956.016 1.62915 0
-954.328 1.4456 0
-952.644 1.2562 0
-950.963 1.06285 0
-949.286 0.865262 0
-947.613 0.663611 0
-945.943 0.459163 0
-944.275 0.25153 0
-942.611 0.0409056 0
-940.95 -0.170755 0
-939.293 -0.384297 0
-937.638 -0.598369 0
-935.987 -0.813507 0
-934.338 -1.02815 0
-932.692 -1.24283 0
-931.048 -1.45665 0
-929.408 -1.6695 0
-927.77 -1.88094 0
-926.135 -2.09071 0
-924.502 -2.29797 0
-922.872 -2.50304 0
-921.244 -2.70613 0
-919.618 -2.90494 0
-917.994 -3.10099 0
-916.372 -3.29396 0
-914.751 -3.483 0
-913.133 -3.66834 0
-911.515 -3.84912 0
-909.9 -4.02634 0
-908.286 -4.19937 0
-906.674 -4.36628 0
-905.062 -4.52827 0
-903.453 -4.68615 0
-901.845 -4.83865 0
-900.237 -4.98596 0
-898.631 -5.12817 0
-897.025 -5.26393 0
-895.421 -5.39513 0
-893.817 -5.52041 0
-892.213 -5.63976 0
-890.61 -5.75381 0
-889.008 -5.86226 0
-887.406 -5.96407 0
-885.804 -6.06096 0
-884.203 -6.1526 0
-882.601 -6.23847 0
-881 -6.31845 0
-879.399 -6.39224 0
-877.797 -6.46151 0
-876.197 -6.52394 0
-874.597 -6.58069 0
-872.996 -6.63237 0
-871.394 -6.67831 0
-869.792 -6.7191 0
-868.19 -6.75593 0
-866.587 -6.78573 0
-864.985 -6.81088 0
-863.381 -6.83165 0
-861.778 -6.84661 0
-860.174 -6.85807 0
-858.569 -6.86409 0
-856.965 -6.86511 0
-855.359 -6.86286 0
-853.751 -6.85537 0
-852.144 -6.84397 0
-850.536 -6.82848 0
-848.927 -6.80934 0
-847.317 -6.7858 0
-845.706 -6.75916 0
-844.095 -6.72923 0
-842.483 -6.69586 0
-840.869 -6.65959 0
-839.256 -6.61969 0
-837.641 -6.57744 0
-836.025 -6.53161 0
-834.409 -6.48379 0
-832.792 -6.43238 0
-831.174 -6.37992 0
-829.555 -6.32444 0
-827.935 -6.26725 0
-826.314 -6.20809 0
-824.692 -6.14606 0
-823.069 -6.08318 0
-821.446 -6.01939 0
-819.822 -5.95425 0
-818.196 -5.88786 0
-816.571 -5.81945 0
-814.943 -5.75019 0
-813.316 -5.68046 0
-811.687 -5.61094 0
-810.057 -5.54081 0
-808.426 -5.46866 0
-806.796 -5.39577 0
-805.163 -5.32352 0
-803.531 -5.25112 0
-801.898 -5.17873 0
-800.264 -5.10609 0
-798.63 -5.03405 0
-796.994 -4.96232 0
-795.358 -4.89019 0
-793.721 -4.81835 0
-792.084 -4.74822 0
-790.446 -4.67844 0
-788.807 -4.6084 0
-787.168 -4.53907 0
-785.528 -4.46948 0
-783.888 -4.40152 0
-782.248 -4.33597 0
-780.606 -4.27045 0
-778.965 -4.20665 0
-777.322 -4.14285 0
-775.68 -4.08139 0
-774.037 -4.01968 0
-772.394 -3.9605 0
-770.751 -3.90242 0
-769.107 -3.84629 0
-767.463 -3.7906 0
-765.818 -3.737 0
-764.174 -3.68467 0
-762.528 -3.63368 0
-760.883 -3.58395 0
-759.238 -3.5362 0
-757.592 -3.48956 0
-755.946 -3.44396 0
-754.299 -3.40048 0
-752.654 -3.3584 0
-751.008 -3.31885 0
-749.361 -3.28071 0
-747.715 -3.24379 0
-746.069 -3.20758 0
-744.422 -3.17436 0
-742.776 -3.14239 0
-741.129 -3.11171 0
-739.483 -3.08273 0
-737.836 -3.05661 0
-736.189 -3.03192 0
-734.543 -3.00703 0
-732.895 -2.98405 0
-731.249 -2.9632 0
-729.603 -2.94414 0
-727.957 -2.92678 0
-726.31 -2.9093 0
-724.664 -2.89397 0
-723.019 -2.88085 0
-721.373 -2.86848 0
-719.726 -2.8582 0
-718.081 -2.84705 0
-716.435 -2.84049 0
-714.791 -2.83307 0
-713.145 -2.82831 0
-711.5 -2.8242 0
-709.856 -2.82119 0
-708.211 -2.81932 0
-706.566 -2.81873 0
-704.923 -2.81779 0
-703.279 -2.81957 0
-701.636 -2.82177 0
-699.993 -2.82528 0
-698.351 -2.83017 0
-696.708 -2.8356 0
-695.065 -2.84106 0
-693.423 -2.84895 0
-691.78 -2.85642 0
-690.138 -2.86476 0
-688.497 -2.87535 0
-686.855 -2.88554 0
-685.214 -2.89748 0
-683.573 -2.90845 0
-681.932 -2.92063 0
-680.292 -2.9335 0
-678.652 -2.94682 0
-677.012 -2.96013 0
-675.373 -2.97512 0
-673.733 -2.98942 0
-672.094 -3.005 0
-670.456 -3.0198 0
-668.816 -3.03611 0
-667.177 -3.05118 0
-665.539 -3.06814 0
-663.901 -3.08572 0
-662.264 -3.10141 0
-660.627 -3.11893 0
-658.99 -3.13645 0
-657.352 -3.15289 0
-655.715 -3.17001 0
-654.078 -3.18647 0
-652.442 -3.2039 0
-650.806 -3.22146 0
-649.17 -3.23941 0
-647.535 -3.25523 0
-645.898 -3.27203 0
-644.263 -3.28794 0
-642.627 -3.30508 0
-640.992 -3.31997 0
-639.357 -3.33627 0
-637.723 -3.35254 0
-636.088 -3.36822 0
-634.454 -3.38362 0
-632.818 -3.39808 0
-631.184 -3.41231 0
-629.549 -3.42696 0
-627.915 -3.4402 0
-626.281 -3.45424 0
-624.647 -3.46727 0
-623.015 -3.47926 0
-621.382 -3.49159 0
-619.748 -3.50439 0
-618.114 -3.51578 0
-616.48 -3.5262 0
-614.847 -3.5363 0
-613.215 -3.54654 0
-611.582 -3.55663 0
-609.949 -3.56706 0
-608.316 -3.57528 0
-606.683 -3.58411 0
-605.051 -3.59237 0
-603.418 -3.59901 0
-601.785 -3.60575 0
-600.152 -3.61191 0
-598.52 -3.61815 0
-596.886 -3.6234 0
-595.253 -3.62683 0
-593.621 -3.63128 0
-591.987 -3.63473 0
-590.355 -3.63953 0
-588.722 -3.64314 0
-587.09 -3.64611 0
-585.457 -3.64854 0
-583.823 -3.64932 0
-582.191 -3.6505 0
-580.558 -3.65146 0
-578.925 -3.65157 0
-577.292 -3.65101 0
-575.658 -3.65028 0
-574.026 -3.64812 0
-572.393 -3.64759 0
-570.76 -3.64575 0
-569.127 -3.6426 0
-567.494 -3.64089 0
-565.86 -3.63709 0
-564.227 -3.63352 0
-562.594 -3.62993 0
-560.961 -3.62627 0
-559.328 -3.62199 0
-557.693 -3.61636 0
-556.06 -3.6106 0
-554.426 -3.60387 0
-552.793 -3.59849 0
-551.159 -3.59095 0
-549.526 -3.58392 0
-547.893 -3.57491 0
-546.259 -3.568 0
-544.625 -3.56189 0
-542.991 -3.55435 0
-541.358 -3.54691 0
-539.724 -3.53952 0
-538.09 -3.53097 0
-536.456 -3.52067 0
-534.823 -3.51033 0
-533.188 -3.4992 0
-531.553 -3.48917 0
-529.919 -3.48039 0
-528.285 -3.47029 0
-526.651 -3.4596 0
-525.017 -3.44864 0
-523.381 -3.43744 0
-521.746 -3.42719 0
-520.112 -3.41674 0
-518.476 -3.40845 0
-516.842 -3.3962 0
-515.207 -3.38391 0
-513.571 -3.37379 0
-511.936 -3.36115 0
-510.302 -3.35035 0
-508.665 -3.33827 0
-507.03 -3.32485 0
-505.395 -3.31291 0
-503.759 -3.30313 0
-502.123 -3.29099 0
-500.487 -3.2809 0
-498.851 -3.26813 0
-497.217 -3.25536 0
-495.581 -3.24503 0
-493.945 -3.23383 0
-492.309 -3.22017 0
-490.673 -3.20862 0
-489.037 -3.19839 0
-487.401 -3.18631 0
-485.765 -3.17465 0
-484.129 -3.1633 0
-482.493 -3.15194 0
-480.857 -3.14114 0
-479.22 -3.12997 0
-477.585 -3.11727 0
-475.949 -3.10663 0
-474.313 -3.09743 0
-472.676 -3.08771 0
-471.04 -3.07704 0
-469.402 -3.06564 0
-467.765 -3.05477 0
-466.13 -3.04558 0
-464.492 -3.03479 0
-462.857 -3.02487 0
-461.219 -3.01564 0
-459.583 -3.00602 0
-457.946 -2.99731 0
-456.309 -2.98908 0
-454.672 -2.97913 0
-453.035 -2.97019 0
-451.399 -2.96182 0
-449.764 -2.95392 0
-448.126 -2.94558 0
-446.488 -2.93678 0
-444.852 -2.92847 0
-443.216 -2.92096 0
-441.578 -2.91329 0
-439.942 -2.90569 0
-438.306 -2.89737 0
-436.669 -2.89017 0
-435.031 -2.88253 0
-433.395 -2.87634 0
-431.758 -2.86871 0
-430.121 -2.86235 0
-428.484 -2.85708 0
-426.847 -2.85037 0
-425.211 -2.84544 0
-423.574 -2.83882 0
-421.937 -2.83325 0
-420.3 -2.8267 0
-418.664 -2.82336 0
-417.026 -2.81797 0
-415.39 -2.81169 0
-413.753 -2.80723 0
-412.116 -2.8037 0
-410.479 -2.79822 0
-408.841 -2.79368 0
-407.205 -2.78903 0
-405.568 -2.78508 0
-403.931 -2.7805 0
-402.295 -2.77635 0
-400.658 -2.77288 0
-399.022 -2.76826 0
-397.385 -2.76251 0
-395.749 -2.75941 0
-394.111 -2.75688 0
-392.475 -2.75439 0
-390.838 -2.7511 0
-389.202 -2.74729 0
-387.566 -2.74479 0
-385.929 -2.74184 0
-384.292 -2.73999 0
-382.657 -2.73857 0
-381.021 -2.73463 0
-379.384 -2.73438 0
-377.747 -2.73247 0
-376.11 -2.72978 0
-374.474 -2.72825 0
-372.837 -2.72606 0
-371.203 -2.72477 0
-369.565 -2.72331 0
-367.929 -2.72222 0
-366.293 -2.71961 0
-364.656 -2.71873 0
-363.021 -2.71743 0
-361.384 -2.71653 0
-359.748 -2.71568 0
-358.112 -2.71365 0
-356.476 -2.71444 0
-354.839 -2.71253 0
-353.203 -2.71184 0
-351.568 -2.71178 0
-349.931 -2.71166 0
-348.295 -2.70928 0
-346.66 -2.71053 0
-345.023 -2.70894 0
-343.387 -2.70973 0
-341.752 -2.70775 0
-340.116 -2.70815 0
-338.48 -2.70692 0
-336.844 -2.70598 0
-335.208 -2.70724 0
-333.573 -2.708 0
-331.937 -2.70683 0
-330.3 -2.70671 0
-328.666 -2.7076 0
-327.031 -2.70715 0
-325.395 -2.70642 0
-323.76 -2.70798 0
-322.125 -2.70808 0
-320.488 -2.70707 0
-318.853 -2.70789 0
-317.219 -2.70648 0
-315.582 -2.70595 0
-313.946 -2.70599 0
-312.31 -2.70701 0
-310.675 -2.70591 0
-309.04 -2.70713 0
-307.403 -2.7056 0
-305.769 -2.70564 0
-304.134 -2.70687 0
-302.498 -2.70592 0
-300.863 -2.70552 0
-299.227 -2.70589 0
-297.591 -2.70385 0
-295.958 -2.70625 0
-294.322 -2.70627 0
-292.686 -2.70545 0
-291.051 -2.70274 0
-289.416 -2.70268 0
-287.78 -2.70333 0
-286.145 -2.70239 0
-284.51 -2.70099 0
-282.875 -2.70014 0
-281.24 -2.70006 0
-279.603 -2.69893 0
-277.971 -2.69727 0
-276.336 -2.69805 0
-274.7 -2.69772 0
-273.065 -2.6954 0
-271.43 -2.6971 0
-269.793 -2.69544 0
-268.157 -2.69389 0
-266.522 -2.69394 0
-264.888 -2.69185 0
-263.253 -2.69097 0
-261.618 -2.69102 0
-259.982 -2.69155 0
-258.348 -2.69037 0
-256.713 -2.68858 0
-255.077 -2.68809 0
-253.443 -2.68811 0
-251.808 -2.68728 0
-250.172 -2.68453 0
-248.538 -2.68355 0
-246.902 -2.68186 0
-245.267 -2.68037 0
-243.631 -2.67856 0
-241.996 -2.67777 0
-240.36 -2.67711 0
-238.725 -2.67728 0
-237.09 -2.67586 0
-235.455 -2.67479 0
-233.819 -2.67336 0
-232.184 -2.67036 0
-230.55 -2.6696 0
-228.914 -2.66833 0
-227.279 -2.66727 0
-225.643 -2.666 0
-224.009 -2.66458 0
-222.374 -2.66215 0
-220.739 -2.66047 0
-219.104 -2.66054 0
-217.468 -2.6599 0
-215.833 -2.65808 0
-214.198 -2.65754 0
-212.562 -2.65506 0
-210.927 -2.65277 0
-209.292 -2.6525 0
-207.657 -2.64978 0
-206.023 -2.64693 0
-204.387 -2.64486 0
-202.752 -2.64337 0
-201.115 -2.64094 0
-199.481 -2.63787 0
-197.846 -2.63677 0
-196.211 -2.63603 0
-194.577 -2.63468 0
-192.942 -2.6317 0
-191.307 -2.63048 0
-189.671 -2.6275 0
-188.036 -2.62649 0
-186.4 -2.62607 0
-184.765 -2.62451 0
-183.127 -2.62202 0
-181.494 -2.62088 0
-179.859 -2.61965 0
-178.223 -2.61871 0
-176.588 -2.61561 0
-174.953 -2.61363 0
-173.317 -2.61117 0
-171.681 -2.60953 0
-170.046 -2.60874 0
-168.411 -2.60567 0
-166.776 -2.60466 0
-165.14 -2.60132 0
-163.505 -2.60086 0
-161.871 -2.59959 0
-160.234 -2.59857 0
-158.599 -2.59591 0
-156.962 -2.5945 0
-155.329 -2.59125 0
-153.695 -2.59109 0
-152.06 -2.58783 0
-150.423 -2.58485 0
-148.788 -2.58149 0
-147.154 -2.5821 0
-145.519 -2.58115 0
-143.883 -2.5808 0
-142.247 -2.5784 0
-140.613 -2.57538 0
-138.979 -2.57436 0
-137.344 -2.57135 0
-135.708 -2.57088 0
-134.072 -2.56877 0
-132.438 -2.56707 0
-130.803 -2.56556 0
-129.167 -2.56634 0
-127.532 -2.56549 0
-125.897 -2.56632 0
-124.261 -2.56524 0
-122.627 -2.56369 0
-120.993 -2.56381 0
-119.358 -2.56296 0
-117.722 -2.56169 0
-116.089 -2.55973 0
-114.452 -2.55766 0
-112.815 -2.55529 0
-111.179 -2.55484 0
-109.543 -2.55484 0
-107.91 -2.55415 0
-106.276 -2.55203 0
-104.641 -2.55023 0
-103.006 -2.55039 0
-101.369 -2.54902 0
-99.7343 -2.54877 0
-98.0995 -2.54917 0
-96.4652 -2.54948 0
-94.8282 -2.5492 0
-93.1933 -2.54764 0
-91.5599 -2.54515 0
-89.9251 -2.54633 0
-88.2886 -2.54645 0
-86.654 -2.54413 0
-85.0191 -2.54166 0
-83.3836 -2.54093 0
-81.7493 -2.53944 0
-80.1138 -2.53977 0
-78.4799 -2.53947 0
-76.8444 -2.53824 0
-75.2087 -2.53764 0
-73.5744 -2.5366 0
-71.9398 -2.5373 0
-70.3029 -2.53624 0
-68.6666 -2.53487 0
-67.031 -2.53571 0
-65.3965 -2.53587 0
-63.7624 -2.5345 0
-62.1271 -2.53208 0
-60.4916 -2.53089 0
-58.8572 -2.53054 0
-57.2204 -2.52894 0
-55.5863 -2.52856 0
-53.9511 -2.52914 0
-52.3175 -2.52941 0
-50.6822 -2.53089 0
-49.0493 -2.52959 0
-47.4122 -2.52833 0
-45.7778 -2.52708 0
-44.1433 -2.52492 0
-42.5091 -2.52516 0
-40.8746 -2.5247 0
-39.2398 -2.52497 0
-37.6033 -2.52478 0
-35.97 -2.5241 0
-34.3333 -2.52383 0
-32.6974 -2.52205 0
-31.063 -2.52131 0
-29.4282 -2.52013 0
-27.7934 -2.52023 0
-26.1584 -2.51963 0
-24.5234 -2.52064 0
-22.8863 -2.51862 0
-21.2515 -2.51744 0
-19.6162 -2.51882 0
-17.9806 -2.51869 0
-16.3456 -2.51828 0
-14.7129 -2.51864 0
-13.0779 -2.51799 0
-11.4421 -2.51848 0
-9.8077 -2.51737 0
-8.17332 -2.51626 0
-6.53955 -2.51746 0
-4.9053 -2.51732 0
-3.26863 -2.51792 0
-1.63368 -2.51716 0
0 -2.51674 0
-1108.88 73.4258 0
-1108.48 65.8791 0
-1108.21 58.7515 0
-1107.91 51.9106 0
-1107.6 45.3482 0
-1107.29 39.058 0
-1106.97 33.0505 0
-1106.59 27.3375 0
-1106.15 21.9498 0
-1105.66 16.9244 0
-1105.13 12.2765 0
-1104.59 8.00713 0
-1104.03 4.10927 0
-1103.45 0.570507 0
-1102.85 -2.62495 0
-1102.24 -5.49796 0
-1101.6 -8.06976 0
-1100.94 -10.3646 0
-1100.26 -12.4047 0
-1099.55 -14.2106 0
-1098.82 -15.8047 0
-1098.05 -17.2036 0
-1097.26 -18.4245 0
-1096.44 -19.4834 0
-1095.59 -20.3929 0
-1094.71 -21.1666 0
-1093.81 -21.8145 0
-1092.88 -22.347 0
-1091.92 -22.7716 0
-1090.94 -23.0964 0
-1089.94 -23.3284 0
-1088.91 -23.4728 0
-1087.85 -23.5374 0
-1086.78 -23.5259 0
-1085.68 -23.4441 0
-1084.56 -23.2957 0
-1083.41 -23.0848 0
-1082.25 -22.8162 0
-1081.06 -22.4944 0
-1079.85 -22.123 0
-1078.61 -21.7048 0
-1077.36 -21.2439 0
-1076.08 -20.7444 0
-1074.79 -20.2089 0
-1073.47 -19.6413 0
-1072.13 -19.0447 0
-1070.77 -18.4224 0
-1069.4 -17.7785 0
-1068 -17.1153 0
-1066.59 -16.435 0
-1065.15 -15.7425 0
-1063.7 -15.0377 0
-1062.24 -14.3251 0
-1060.75 -13.6056 0
-1059.25 -12.8831 0
-1057.74 -12.159 0
-1056.21 -11.4355 0
-1054.67 -10.7146 0
-1053.11 -9.99826 0
-1051.54 -9.28721 0
-1049.95 -8.58416 0
-1048.36 -7.88988 0
-1046.75 -7.20642 0
-1045.13 -6.53532 0
-1043.51 -5.87683 0
-1041.87 -5.23224 0
-1040.22 -4.60359 0
-1038.56 -3.99098 0
-1036.9 -3.39551 0
-1035.23 -2.8178 0
-1033.55 -2.25828 0
-1031.86 -1.71803 0
-1030.17 -1.19739 0
-1028.47 -0.696377 0
-1026.76 -0.215684 0
-1025.05 0.244214 0
-1023.34 0.68281 0
-1021.62 1.1008 0
-1019.9 1.49771 0
-1018.18 1.87264 0
-1016.45 2.22644 0
-1014.72 2.55825 0
-1012.99 2.86922 0
-1011.25 3.15868 0
-1009.52 3.42694 0
-1007.78 3.67428 0
-1006.05 3.90047 0
-1004.31 4.1061 0
-1002.57 4.29231 0
-1000.83 4.45805 0
-999.091 4.60423 0
-997.353 4.73192 0
-995.615 4.8405 0
-993.878 4.93121 0
-992.143 5.00315 0
-990.408 5.05761 0
-988.675 5.09555 0
-986.944 5.1169 0
-985.214 5.12238 0
-983.487 5.11177 0
-981.761 5.08602 0
-980.038 5.04709 0