<?xml version="1.0"?>
<VTKFile type="StructuredGrid"  version="0.1" byte_order="LittleEndian" compressor="vtkZLibDataCompressor">
  <StructuredGrid WholeExtent="0 700 0 30 0 0">
    <Piece Extent="0 700 0 30 0 0">
      <PointData Vectors="Velocity">
        <DataArray type="Float32" Name="Velocity" NumberOfComponents="3" format="ascii">
-1091.88 67.3017 0
-1092.05 60.349 0
-1092.29 53.5769 0
-1092.57 47.1025 0
-1092.83 40.9605 0
-1093.03 35.0836 0
-1093.22 29.4145 0
-1093.46 24.021 0
-1093.71 18.9855 0
-1093.95 14.3345 0
-1094.16 10.0653 0
-1094.34 6.16941 0
-1094.49 2.63507 0
-1094.59 -0.551865 0
-1094.63 -3.41093 0
-1094.61 -5.96341 0
-1094.53 -8.23137 0
-1094.38 -10.2379 0
-1094.16 -12.0045 0
-1093.87 -13.5514 0
-1093.51 -14.8974 0
-1093.08 -16.0603 0
-1092.59 -17.0559 0
-1092.04 -17.8995 0
-1091.44 -18.6046 0
-1090.78 -19.1833 0
-1090.07 -19.6472 0
-1089.31 -20.0049 0
-1088.51 -20.2659 0
-1087.66 -20.4378 0
-1086.78 -20.5278 0
-1085.86 -20.5434 0
-1084.9 -20.4893 0
-1083.91 -20.3712 0
-1082.88 -20.1948 0
-1081.82 -19.9632 0
-1080.73 -19.6823 0
-1079.61 -19.3554 0
-1078.46 -18.9864 0
-1077.28 -18.5791 0
-1076.07 -18.1366 0
-1074.83 -17.6627 0
-1073.56 -17.1608 0
-1072.27 -16.6337 0
-1070.95 -16.0857 0
-1069.6 -15.5187 0
-1068.23 -14.9351 0
-1066.84 -14.3388 0
-1065.42 -13.7325 0
-1063.98 -13.1184 0
-1062.52 -12.4988 0
-1061.03 -11.8754 0
-1059.53 -11.2519 0
-1058.01 -10.6285 0
-1056.46 -10.0085 0
-1054.9 -9.39359 0
-1053.33 -8.78437 0
-1051.74 -8.1836 0
-1050.13 -7.59221 0
-1048.51 -7.01212 0
-1046.87 -6.44426 0
-1045.22 -5.88809 0
-1043.56 -5.34625 0
-1041.89 -4.82021 0
-1040.21 -4.3098 0
-1038.52 -3.81669 0
-1036.82 -3.34163 0
-1035.11 -2.88388 0
-1033.4 -2.4454 0
-1031.67 -2.02475 0
-1029.94 -1.62431 0
-1028.21 -1.24296 0
-1026.47 -0.881844 0
-1024.72 -0.541311 0
-1022.98 -0.221277 0
-1021.22 0.079194 0
-1019.47 0.358663 0
-1017.71 0.618985 0
-1015.95 0.858236 0
-1014.19 1.07902 0
-1012.43 1.27851 0
-1010.67 1.45952 0
-1008.91 1.62014 0
-1007.15 1.76329 0
-1005.38 1.8873 0
-1003.62 1.9925 0
-1001.86 2.08061 0
-1000.11 2.1504 0
-998.349 2.20312 0
-996.596 2.24075 0
-994.843 2.26128 0
-993.095 2.26625 0
-991.348 2.2571 0
-989.603 2.23219 0
-987.863 2.19393 0
-986.127 2.14317 0
-984.392 2.07894 0
-982.662 2.00221 0
-980.935 1.91357 0
-979.212 1.81491 0
-977.493 1.70554 0
-975.779 1.58569 0
-974.067 1.45659 0
-972.36 1.31921 0
-970.656 1.17426 0
-968.958 1.02156 0
-967.263 0.861703 0
-965.572 0.695445 0
-963.884 0.524055 0
-962.202 0.346051 0
-960.524 0.164069 0
-958.85 -0.0215296 0
-957.178 -0.210778 0
-955.512 -0.404692 0
-953.849 -0.599819 0
-952.19 -0.798181 0
-950.535 -0.996976 0
-948.883 -1.19673 0
-947.235 -1.39861 0
-945.59 -1.59951 0
-943.948 -1.80043 0
-942.31 -2.00154 0
-940.676 -2.20166 0
-939.043 -2.39968 0
-937.414 -2.59651 0
-935.788 -2.79148 0
-934.165 -2.98331 0
-932.545 -3.17308 0
-930.926 -3.3597 0
-929.31 -3.54268 0
-927.696 -3.72314 0
-926.086 -3.89885 0
-924.475 -4.07097 0
-922.868 -4.23936 0
-921.262 -4.40323 0
-919.658 -4.56258 0
-918.056 -4.71712 0
-916.455 -4.86604 0
-914.854 -5.0101 0
-913.256 -5.15034 0
-911.659 -5.28584 0
-910.063 -5.41392 0
-908.469 -5.53708 0
-906.874 -5.65592 0
-905.28 -5.77053 0
-903.687 -5.87578 0
-902.095 -5.97839 0
-900.503 -6.07345 0
-898.911 -6.16408 0
-897.318 -6.24885 0
-895.727 -6.32897 0
-894.136 -6.40287 0
-892.545 -6.47019 0
-890.953 -6.53304 0
-889.362 -6.59139 0
-887.769 -6.6438 0
-886.177 -6.69009 0
-884.584 -6.73167 0
-882.992 -6.76809 0
-881.398 -6.79995 0
-879.803 -6.82744 0
-878.209 -6.84967 0
-876.614 -6.86828 0
-875.017 -6.87963 0
-873.421 -6.88861 0
-871.823 -6.89193 0
-870.227 -6.89345 0
-868.628 -6.88885 0
-867.028 -6.88019 0
-865.426 -6.86792 0
-863.825 -6.85328 0
-862.222 -6.8346 0
-860.617 -6.81208 0
-859.012 -6.78651 0
-857.407 -6.75892 0
-855.8 -6.72725 0
-854.192 -6.69383 0
-852.584 -6.65704 0
-850.975 -6.61784 0
-849.365 -6.57685 0
-847.753 -6.53183 0
-846.139 -6.48546 0
-844.525 -6.4388 0
-842.91 -6.38967 0
-841.294 -6.33988 0
-839.678 -6.28728 0
-838.06 -6.23301 0
-836.44 -6.1785 0
-834.821 -6.12333 0
-833.199 -6.06612 0
-831.578 -6.0102 0
-829.955 -5.95308 0
-828.332 -5.8943 0
-826.707 -5.83631 0
-825.082 -5.77509 0
-823.455 -5.7159 0
-821.827 -5.65632 0
-820.199 -5.59748 0
-818.57 -5.53843 0
-816.94 -5.48008 0
-815.31 -5.421 0
-813.679 -5.36115 0
-812.046 -5.30385 0
-810.413 -5.24622 0
-808.779 -5.18991 0
-807.146 -5.13466 0
-805.511 -5.08029 0
-803.876 -5.02556 0
-802.241 -4.97259 0
-800.605 -4.92141 0
-798.967 -4.86957 0
-797.331 -4.81871 0
-795.696 -4.7715 0
-794.056 -4.7231 0
-792.417 -4.67691 0
-790.779 -4.6333 0
-789.141 -4.58858 0
-787.5 -4.54569 0
-785.86 -4.50551 0
-784.219 -4.4663 0
-782.578 -4.42901 0
-780.938 -4.39323 0
-779.297 -4.35799 0
-777.656 -4.32648 0
-776.015 -4.29412 0
-774.374 -4.26443 0
-772.732 -4.23742 0
-771.09 -4.2087 0
-769.449 -4.18395 0
-767.808 -4.15814 0
-766.165 -4.13686 0
-764.523 -4.11502 0
-762.883 -4.09712 0
-761.241 -4.07986 0
-759.599 -4.06307 0
-757.957 -4.04771 0
-756.316 -4.0345 0
-754.674 -4.02223 0
-753.034 -4.01286 0
-751.392 -4.00405 0
-749.751 -3.9977 0
-748.112 -3.99023 0
-746.471 -3.98495 0
-744.83 -3.98068 0
-743.19 -3.97787 0
-741.551 -3.97677 0
-739.912 -3.97838 0
-738.272 -3.97906 0
-736.632 -3.98138 0
-734.993 -3.98524 0
-733.355 -3.98924 0
-731.715 -3.9944 0
-730.076 -4.00142 0
-728.438 -4.00706 0
-726.8 -4.01545 0
-725.163 -4.02661 0
-723.526 -4.03731 0
-721.891 -4.04792 0
-720.253 -4.05793 0
-718.617 -4.07092 0
-716.982 -4.0844 0
-715.345 -4.09951 0
-713.708 -4.11231 0
-712.074 -4.12734 0
-710.439 -4.14288 0
-708.805 -4.15755 0
-707.17 -4.17315 0
-705.536 -4.19065 0
-703.902 -4.20852 0
-702.269 -4.22375 0
-700.634 -4.24152 0
-699.001 -4.2574 0
-697.368 -4.27752 0
-695.735 -4.29647 0
-694.105 -4.31326 0
-692.472 -4.33315 0
-690.839 -4.35333 0
-689.209 -4.37334 0
-687.577 -4.3914 0
-685.946 -4.40969 0
-684.317 -4.42649 0
-682.687 -4.44644 0
-681.056 -4.46438 0
-679.427 -4.48309 0
-677.796 -4.50028 0
-676.167 -4.51982 0
-674.538 -4.5375 0
-672.909 -4.55512 0
-671.28 -4.57392 0
-669.651 -4.59049 0
-668.023 -4.60668 0
-666.396 -4.62251 0
-664.766 -4.63838 0
-663.138 -4.65492 0
-661.511 -4.67005 0
-659.882 -4.68649 0
-658.254 -4.69978 0
-656.627 -4.71615 0
-655 -4.73099 0
-653.373 -4.74427 0
-651.746 -4.75721 0
-650.119 -4.76963 0
-648.491 -4.78271 0
-646.865 -4.79275 0
-645.237 -4.80335 0
-643.61 -4.81617 0
-641.983 -4.82837 0
-640.357 -4.83721 0
-638.73 -4.84679 0
-637.104 -4.85338 0
-635.478 -4.8628 0
-633.85 -4.87127 0
-632.225 -4.87684 0
-630.599 -4.88517 0
-628.973 -4.88985 0
-627.345 -4.89555 0
-625.719 -4.90178 0
-624.091 -4.90506 0
-622.466 -4.90972 0
-620.84 -4.91542 0
-619.215 -4.91721 0
-617.588 -4.92053 0
-615.963 -4.92227 0
-614.336 -4.92379 0
-612.708 -4.92592 0
-611.082 -4.92636 0
-609.455 -4.92728 0
-607.828 -4.92663 0
-606.202 -4.92614 0
-604.576 -4.9229 0
-602.95 -4.9214 0
-601.323 -4.91911 0
-599.696 -4.91803 0
-598.069 -4.9161 0
-596.442 -4.91429 0
-594.815 -4.91006 0
-593.188 -4.9072 0
-591.562 -4.90169 0
-589.933 -4.89766 0
-588.305 -4.89352 0
-586.68 -4.88891 0
-585.051 -4.88291 0
-583.423 -4.87745 0
-581.795 -4.86942 0
-580.166 -4.86256 0
-578.539 -4.8573 0
-576.911 -4.84944 0
-575.284 -4.84321 0
-573.657 -4.83551 0
-572.027 -4.82949 0
-570.398 -4.82205 0
-568.771 -4.81263 0
-567.142 -4.80468 0
-565.513 -4.79692 0
-563.885 -4.79072 0
-562.258 -4.78079 0
-560.628 -4.77007 0
-558.999 -4.75982 0
-557.369 -4.74984 0
-555.742 -4.74321 0
-554.113 -4.73166 0
-552.482 -4.72271 0
-550.852 -4.71341 0
-549.222 -4.70486 0
-547.594 -4.69421 0
-545.965 -4.683 0
-544.334 -4.67631 0
-542.706 -4.66578 0
-541.077 -4.65527 0
-539.448 -4.64681 0
-537.818 -4.63457 0
-536.187 -4.62501 0
-534.557 -4.61679 0
-532.926 -4.60844 0
-531.297 -4.5972 0
-529.666 -4.5878 0
-528.036 -4.57819 0
-526.406 -4.56786 0
-524.776 -4.55924 0
-523.146 -4.54834 0
-521.514 -4.53893 0
-519.883 -4.5301 0
-518.253 -4.51926 0
-516.622 -4.51135 0
-514.991 -4.50035 0
-513.359 -4.49057 0
-511.727 -4.48283 0
-510.097 -4.47596 0
-508.466 -4.46529 0
-506.835 -4.45578 0
-505.206 -4.44839 0
-503.574 -4.44131 0
-501.943 -4.43168 0
-500.314 -4.42263 0
-498.684 -4.415 0
-497.051 -4.40689 0
-495.421 -4.3999 0
-493.788 -4.39177 0
-492.159 -4.38351 0
-490.526 -4.37695 0
-488.896 -4.36846 0
-487.266 -4.3601 0
-485.634 -4.35392 0
-484.002 -4.348 0
-482.37 -4.34027 0
-480.74 -4.33117 0
-479.109 -4.3277 0
-477.478 -4.32005 0
-475.847 -4.31541 0
-474.216 -4.30855 0
-472.586 -4.30346 0
-470.954 -4.29683 0
-469.323 -4.29032 0
-467.694 -4.28614 0
-466.063 -4.27977 0
-464.432 -4.27517 0
-462.799 -4.27148 0
-461.169 -4.26607 0
-459.537 -4.26145 0
-457.906 -4.25613 0
-456.274 -4.25296 0
-454.643 -4.2466 0
-453.013 -4.24378 0
-451.382 -4.23891 0
-449.752 -4.23482 0
-448.119 -4.23058 0
-446.491 -4.22794 0
-444.86 -4.22461 0
-443.23 -4.22068 0
-441.598 -4.21847 0
-439.967 -4.21585 0
-438.338 -4.2158 0
-436.707 -4.2102 0
-435.078 -4.2058 0
-433.445 -4.20262 0
-431.814 -4.19988 0
-430.181 -4.19851 0
-428.553 -4.19486 0
-426.922 -4.19177 0
-425.291 -4.19037 0
-423.659 -4.1863 0
-422.031 -4.18507 0
-420.399 -4.18325 0
-418.769 -4.18346 0
-417.139 -4.18113 0
-415.509 -4.17824 0
-413.88 -4.17681 0
-412.249 -4.17751 0
-410.619 -4.1749 0
-408.987 -4.17308 0
-407.358 -4.16807 0
-405.726 -4.16612 0
-404.098 -4.16637 0
-402.469 -4.16439 0
-400.837 -4.16346 0
-399.207 -4.16296 0
-397.576 -4.16112 0
-395.946 -4.15802 0
-394.316 -4.15746 0
-392.687 -4.15632 0
-391.059 -4.15519 0
-389.427 -4.15396 0
-387.796 -4.15111 0
-386.166 -4.14844 0
-384.536 -4.14763 0
-382.904 -4.14643 0
-381.277 -4.14616 0
-379.649 -4.14368 0
-378.017 -4.1418 0
-376.388 -4.13879 0
-374.758 -4.13496 0
-373.126 -4.13462 0
-371.497 -4.13393 0
-369.868 -4.13303 0
-368.236 -4.13297 0
-366.606 -4.12998 0
-364.978 -4.12869 0
-363.349 -4.12609 0
-361.719 -4.1235 0
-360.091 -4.12281 0
-358.461 -4.12023 0
-356.833 -4.11897 0
-355.203 -4.11661 0
-353.572 -4.1159 0
-351.944 -4.11471 0
-350.315 -4.11106 0
-348.683 -4.11069 0
-347.054 -4.10763 0
-345.424 -4.10747 0
-343.797 -4.10314 0
-342.165 -4.10383 0
-340.535 -4.10062 0
-338.905 -4.09782 0
-337.278 -4.09663 0
-335.649 -4.09414 0
-334.02 -4.09298 0
-332.388 -4.08988 0
-330.759 -4.08641 0
-329.129 -4.08364 0
-327.499 -4.08468 0
-325.872 -4.08119 0
-324.241 -4.07942 0
-322.614 -4.07553 0
-320.983 -4.07162 0
-319.355 -4.07012 0
-317.724 -4.06741 0
-316.094 -4.06469 0
-314.464 -4.06257 0
-312.836 -4.0613 0
-311.209 -4.05865 0
-309.581 -4.05471 0
-307.95 -4.05209 0
-306.319 -4.04799 0
-304.692 -4.04571 0
-303.06 -4.04356 0
-301.43 -4.04033 0
-299.803 -4.03785 0
-298.173 -4.03453 0
-296.544 -4.03176 0
-294.913 -4.02933 0
-293.284 -4.02207 0
-291.655 -4.01867 0
-290.026 -4.01558 0
-288.399 -4.01439 0
-286.772 -4.01062 0
-285.139 -4.00829 0
-283.508 -4.00304 0
-281.879 -4.00092 0
-280.248 -3.99835 0
-278.618 -3.99451 0
-276.99 -3.99137 0
-275.362 -3.98763 0
-273.734 -3.98383 0
-272.104 -3.97899 0
-270.475 -3.97634 0
-268.846 -3.97159 0
-267.215 -3.96881 0
-265.587 -3.96411 0
-263.96 -3.95852 0
-262.329 -3.95863 0
-260.699 -3.95483 0
-259.07 -3.95072 0
-257.438 -3.9475 0
-255.808 -3.94506 0
-254.18 -3.94053 0
-252.554 -3.93812 0
-250.923 -3.93285 0
-249.293 -3.93054 0
-247.663 -3.92826 0
-246.032 -3.92169 0
-244.4 -3.91951 0
-242.772 -3.91486 0
-241.144 -3.91241 0
-239.515 -3.91144 0
-237.886 -3.90734 0
-236.259 -3.90555 0
-234.628 -3.89789 0
-232.998 -3.89351 0
-231.369 -3.8924 0
-229.74 -3.88909 0
-228.109 -3.8845 0
-226.476 -3.88137 0
-224.846 -3.87763 0
-223.218 -3.87485 0
-221.588 -3.87114 0
-219.96 -3.86903 0
-218.33 -3.86447 0
-216.7 -3.86179 0
-215.069 -3.85768 0
-213.441 -3.85589 0
-211.811 -3.85417 0
-210.181 -3.85158 0
-208.551 -3.84708 0
-206.922 -3.84042 0
-205.291 -3.84086 0
-203.663 -3.83801 0
-202.034 -3.83522 0
-200.404 -3.83305 0
-198.773 -3.82982 0
-197.144 -3.82678 0
-195.518 -3.82236 0
-193.888 -3.81952 0
-192.257 -3.81627 0
-190.628 -3.81414 0
-189.001 -3.81037 0
-187.371 -3.80976 0
-185.74 -3.80627 0
-184.109 -3.8039 0
-182.479 -3.80027 0
-180.85 -3.79716 0
-179.22 -3.79203 0
-177.59 -3.79033 0
-175.96 -3.78963 0
-174.33 -3.78801 0
-172.701 -3.78396 0
-171.073 -3.77986 0
-169.443 -3.78009 0
-167.814 -3.77598 0
-166.186 -3.77592 0
-164.556 -3.77232 0
-162.927 -3.76968 0
-161.296 -3.76633 0
-159.668 -3.76503 0
-158.038 -3.76486 0
-156.41 -3.76202 0
-154.778 -3.76007 0
-153.149 -3.75708 0
-151.52 -3.74966 0
-149.889 -3.74947 0
-148.26 -3.74709 0
-146.629 -3.74863 0
-144.999 -3.74621 0
-143.369 -3.74595 0
-141.74 -3.74487 0
-140.111 -3.74102 0
-138.483 -3.7385 0
-136.853 -3.73873 0
-135.223 -3.73564 0
-133.593 -3.73266 0
-131.963 -3.7319 0
-130.334 -3.72834 0
-128.704 -3.72613 0
-127.076 -3.72571 0
-125.444 -3.72488 0
-123.818 -3.72101 0
-122.186 -3.72082 0
-120.555 -3.72308 0
-118.924 -3.71983 0
-117.295 -3.72089 0
-115.666 -3.72053 0
-114.037 -3.71969 0
-112.407 -3.71477 0
-110.78 -3.7156 0
-109.151 -3.71267 0
-107.523 -3.71246 0
-105.893 -3.7107 0
-104.263 -3.71139 0
-102.635 -3.71012 0
-101.006 -3.70905 0
-99.3756 -3.70669 0
-97.7457 -3.70503 0
-96.1185 -3.70284 0
-94.4878 -3.70308 0
-92.8569 -3.70163 0
-91.2275 -3.69821 0
-89.597 -3.70062 0
-87.9684 -3.6992 0
-86.3391 -3.7018 0
-84.7076 -3.70223 0
-83.0776 -3.70119 0
-81.4501 -3.70069 0
-79.8235 -3.6985 0
-78.1943 -3.69887 0
-76.5664 -3.6975 0
-74.9363 -3.69801 0
-73.3084 -3.69623 0
-71.6778 -3.69534 0
-70.0474 -3.69482 0
-68.4197 -3.69383 0
-66.7906 -3.69362 0
-65.1603 -3.69422 0
-63.5319 -3.69494 0
-61.9029 -3.69281 0
-60.2731 -3.69238 0
-58.6442 -3.69323 0
-57.0161 -3.69051 0
-55.3866 -3.68706 0
-53.7598 -3.68997 0
-52.1312 -3.68975 0
-50.5014 -3.68697 0
-48.8707 -3.69128 0
-47.2418 -3.68889 0
-45.6127 -3.68711 0
-43.9812 -3.68721 0
-42.3556 -3.68858 0
-40.7284 -3.68926 0
-39.0965 -3.68934 0
-37.4686 -3.68956 0
-35.8393 -3.6885 0
-34.2085 -3.68808 0
-32.5795 -3.68861 0
-30.9506 -3.68741 0
-29.3212 -3.68764 0
-27.6918 -3.68617 0
-26.0649 -3.68708 0
-24.437 -3.68373 0
-22.8094 -3.68478 0
-21.1802 -3.68447 0
-19.5502 -3.68186 0
-17.9212 -3.68386 0
-16.2895 -3.68525 0
-14.6581 -3.68637 0
-13.0301 -3.68546 0
-11.4024 -3.68171 0
-9.77427 -3.68272 0
-8.14563 -3.68332 0
-6.51701 -3.68248 0
-4.88836 -3.68325 0
-3.25692 -3.68046 0
-1.6286 -3.68249 0
0 -3.68086 0
-1098.83 67.5209 0
-1098.86 60.5129 0
-1098.86 53.7185 0
-1098.83 47.231 0
-1098.79 41.0778 0
-1098.8 35.194 0
-1098.8 29.5205 0
-1098.72 24.1236 0
-1098.6 19.0852 0
-1098.46 14.434 0
-1098.29 10.1696 0
-1098.11 6.28542 0
-1097.9 2.77054 0
-1097.66 -0.388741 0
-1097.38 -3.21208 0
-1097.06 -5.72157 0
-1096.7 -7.94182 0
-1096.29 -9.89639 0
-1095.84 -11.6095 0
-1095.33 -13.1023 0
-1094.78 -14.3944 0
-1094.17 -15.5046 0
-1093.52 -16.4494 0
-1092.83 -17.2438 0
-1092.09 -17.9028 0
-1091.3 -18.4369 0
-1090.48 -18.8586 0
-1089.62 -19.1765 0
-1088.73 -19.3996 0
-1087.8 -19.5352 0
-1086.84 -19.5903 0
-1085.84 -19.5725 0
-1084.82 -19.4865 0
-1083.77 -19.3373 0
-1082.68 -19.13 0
-1081.57 -18.8692 0
-1080.43 -18.5592 0
-1079.27 -18.204 0
-1078.08 -17.8075 0
-1076.86 -17.3729 0
-1075.62 -16.9034 0
-1074.35 -16.4035 0
-1073.05 -15.8762 0
-1071.74 -15.3239 0
-1070.4 -14.7508 0
-1069.04 -14.1601 0
-1067.65 -13.554 0
-1066.24 -12.9351 0
-1064.82 -12.3071 0
-1063.37 -11.6723 0
-1061.9 -11.0325 0
-1060.42 -10.39 0
-1058.91 -9.74745 0
-1057.39 -9.10693 0
-1055.85 -8.46968 0
-1054.3 -7.83805 0
-1052.73 -7.21339 0
-1051.15 -6.59831 0
-1049.55 -5.99288 0
-1047.94 -5.39994 0
-1046.32 -4.81895 0
-1044.68 -4.25127 0
-1043.04 -3.69841 0
-1041.38 -3.16216 0
-1039.72 -2.64279 0
-1038.04 -2.14072 0
-1036.36 -1.65774 0
-1034.67 -1.19237 0
-1032.97 -0.746679 0
-1031.27 -0.320275 0
-1029.56 0.0860152 0
-1027.84 0.472466 0
-1026.12 0.837776 0
-1024.4 1.18234 0
-1022.67 1.50641 0
-1020.94 1.80963 0
-1019.21 2.09193 0
-1017.47 2.3542 0
-1015.73 2.59507 0
-1013.99 2.81629 0
-1012.25 3.01745 0
-1010.5 3.19827 0
-1008.76 3.35987 0
-1007.02 3.50234 0
-1005.27 3.62539 0
-1003.53 3.72989 0
-1001.79 3.81628 0
-1000.05 3.8854 0
-998.307 3.93685 0
-996.569 3.97173 0
-994.833 3.98999 0
-993.099 3.99283 0
-991.366 3.98137 0
-989.636 3.95353 0
-987.909 3.9122 0
-986.185 3.85813 0
-984.464 3.79116 0
-982.745 3.71073 0
-981.029 3.61901 0
-979.317 3.51627 0
-977.608 3.40326 0
-975.903 3.27986 0
-974.2 3.14743 0
-972.501 3.00691 0
-970.805 2.85795 0
-969.113 2.70093 0
-967.425 2.53714 0
-965.74 2.36722 0
-964.059 2.19185 0
-962.381 2.01061 0
-960.707 1.82468 0
-959.036 1.63565 0
-957.369 1.44238 0
-955.705 1.24574 0
-954.044 1.04678 0
-952.387 0.844565 0
-950.733 0.642485 0
-949.082 0.438833 0
-947.435 0.234989 0
-945.789 0.0304897 0
-944.148 -0.174142 0
-942.508 -0.37789 0
-940.873 -0.580236 0
-939.239 -0.781732 0
-937.608 -0.981314 0
-935.98 -1.17842 0
-934.354 -1.37314 0
-932.731 -1.56492 0
-931.11 -1.75372 0
-929.49 -1.93977 0
-927.872 -2.12183 0
-926.257 -2.29938 0
-924.644 -2.47334 0
-923.033 -2.64353 0
-921.422 -2.80891 0
-919.813 -2.96992 0
-918.206 -3.12589 0
-916.6 -3.27669 0
-914.995 -3.42144 0
-913.392 -3.5628 0
-911.79 -3.6986 0
-910.188 -3.82807 0
-908.588 -3.95243 0
-906.988 -4.07182 0
-905.388 -4.1856 0
-903.79 -4.29342 0
-902.192 -4.39565 0
-900.594 -4.49121 0
-898.997 -4.58242 0
-897.4 -4.66758 0
-895.803 -4.74699 0
-894.206 -4.8218 0
-892.609 -4.889 0
-891.012 -4.95124 0
-889.416 -5.00904 0
-887.818 -5.06158 0
-886.221 -5.10784 0
-884.623 -5.14855 0
-883.025 -5.1851 0
-881.427 -5.216 0
-879.828 -5.24317 0
-878.228 -5.26572 0
-876.628 -5.28244 0
-875.027 -5.29442 0
-873.427 -5.30196 0
-871.826 -5.3054 0
-870.224 -5.30504 0
-868.621 -5.30066 0
-867.017 -5.29071 0
-865.413 -5.27785 0
-863.808 -5.26194 0
-862.201 -5.24214 0
-860.594 -5.21875 0
-858.985 -5.19311 0
-857.378 -5.16388 0
-855.769 -5.13125 0
-854.158 -5.09649 0
-852.546 -5.05991 0
-850.935 -5.01924 0
-849.322 -4.97601 0
-847.708 -4.93122 0
-846.093 -4.88453 0
-844.478 -4.83617 0
-842.862 -4.78684 0
-841.244 -4.7353 0
-839.626 -4.68185 0
-838.007 -4.62692 0
-836.386 -4.57114 0
-834.765 -4.51477 0
-833.144 -4.45778 0
-831.521 -4.3998 0
-829.897 -4.34185 0
-828.273 -4.2825 0
-826.648 -4.22331 0
-825.022 -4.16337 0
-823.396 -4.10134 0
-821.768 -4.04165 0
-820.14 -3.98158 0
-818.512 -3.9225 0
-816.881 -3.8623 0
-815.251 -3.80302 0
-813.62 -3.74355 0
-811.989 -3.6848 0
-810.358 -3.62672 0
-808.724 -3.56917 0
-807.091 -3.51347 0
-805.457 -3.45876 0
-803.823 -3.4032 0
-802.189 -3.35022 0
-800.554 -3.29758 0
-798.918 -3.24614 0
-797.282 -3.19589 0
-795.647 -3.14737 0
-794.01 -3.09842 0
-792.372 -3.05214 0
-790.735 -3.00775 0
-789.097 -2.96258 0
-787.459 -2.91909 0
-785.82 -2.87922 0
-784.182 -2.83905 0
-782.543 -2.80248 0
-780.903 -2.76634 0
-779.263 -2.73143 0
-777.625 -2.69881 0
-775.985 -2.66687 0
-774.345 -2.63608 0
-772.705 -2.60853 0
-771.064 -2.58032 0
-769.425 -2.55595 0
-767.784 -2.5311 0
-766.145 -2.5085 0
-764.504 -2.48806 0
-762.864 -2.46888 0
-761.223 -2.45105 0
-759.584 -2.43527 0
-757.943 -2.42069 0
-756.303 -2.40709 0
-754.663 -2.39548 0
-753.024 -2.38515 0
-751.384 -2.37647 0
-749.745 -2.36975 0
-748.105 -2.36333 0
-746.467 -2.35875 0
-744.828 -2.35468 0
-743.189 -2.35246 0
-741.55 -2.35197 0
-739.912 -2.35198 0
-738.272 -2.35353 0
-736.634 -2.35456 0
-734.995 -2.35891 0
-733.359 -2.36411 0
-731.721 -2.36909 0
-730.083 -2.37621 0
-728.447 -2.38332 0
-726.809 -2.39121 0
-725.173 -2.40191 0
-723.536 -2.41264 0
-721.9 -2.42372 0
-720.265 -2.43518 0
-718.629 -2.4481 0
-716.994 -2.46192 0
-715.359 -2.47634 0
-713.723 -2.49011 0
-712.089 -2.50472 0
-710.455 -2.52105 0
-708.821 -2.53623 0
-707.186 -2.55246 0
-705.553 -2.56975 0
-703.919 -2.58633 0
-702.286 -2.60356 0
-700.652 -2.62106 0
-699.02 -2.6383 0
-697.388 -2.65794 0
-695.754 -2.67702 0
-694.121 -2.69493 0
-692.49 -2.71438 0
-690.859 -2.73405 0
-689.227 -2.75449 0
-687.596 -2.77261 0
-685.965 -2.79164 0
-684.334 -2.80973 0
-682.704 -2.82838 0
-681.075 -2.84704 0
-679.445 -2.86567 0
-677.815 -2.88441 0
-676.186 -2.90278 0
-674.556 -2.92052 0
-672.926 -2.93873 0
-671.297 -2.95731 0
-669.668 -2.97499 0
-668.04 -2.99147 0
-666.411 -3.00674 0
-664.783 -3.0228 0
-663.154 -3.03935 0
-661.525 -3.05549 0
-659.897 -3.07017 0
-658.269 -3.08546 0
-656.641 -3.10105 0
-655.015 -3.11595 0
-653.386 -3.12939 0
-651.758 -3.14248 0
-650.13 -3.1557 0
-648.503 -3.168 0
-646.876 -3.17892 0
-645.249 -3.19005 0
-643.622 -3.20169 0
-641.994 -3.21332 0
-640.365 -3.22383 0
-638.738 -3.23218 0
-637.111 -3.24066 0
-635.486 -3.24879 0
-633.858 -3.25681 0
-632.232 -3.26352 0
-630.605 -3.26973 0
-628.977 -3.2767 0
-627.351 -3.28127 0
-625.723 -3.28713 0
-624.098 -3.29224 0
-622.471 -3.29683 0
-620.844 -3.30161 0
-619.217 -3.30333 0
-617.59 -3.3072 0
-615.964 -3.30839 0
-614.336 -3.30988 0
-612.71 -3.3118 0
-611.083 -3.3124 0
-609.456 -3.31302 0
-607.828 -3.31222 0
-606.201 -3.31159 0
-604.575 -3.30925 0
-602.947 -3.30806 0
-601.321 -3.30596 0
-599.694 -3.30287 0
-598.067 -3.3012 0
-596.439 -3.29852 0
-594.812 -3.29539 0
-593.184 -3.29177 0
-591.556 -3.2878 0
-589.929 -3.28243 0
-588.301 -3.27869 0
-586.673 -3.27337 0
-585.046 -3.26759 0
-583.418 -3.26109 0
-581.79 -3.25321 0
-580.161 -3.24794 0
-578.534 -3.24152 0
-576.906 -3.2358 0
-575.276 -3.22706 0
-573.648 -3.22109 0
-572.02 -3.21252 0
-570.392 -3.2059 0
-568.763 -3.19743 0
-567.134 -3.18896 0
-565.505 -3.18158 0
-563.877 -3.17376 0
-562.247 -3.16521 0
-560.617 -3.15303 0
-558.989 -3.14294 0
-557.361 -3.13435 0
-555.732 -3.12649 0
-554.102 -3.11575 0
-552.473 -3.10608 0
-550.843 -3.09677 0
-549.215 -3.08805 0
-547.584 -3.0778 0
-545.956 -3.06705 0
-544.326 -3.05967 0
-542.696 -3.04896 0
-541.067 -3.03952 0
-539.437 -3.02925 0
-537.807 -3.01824 0
-536.178 -3.00782 0
-534.547 -2.99938 0
-532.917 -2.99085 0
-531.287 -2.97938 0
-529.657 -2.97066 0
-528.027 -2.96123 0
-526.397 -2.95118 0
-524.766 -2.94024 0
-523.136 -2.93017 0
-521.506 -2.9207 0
-519.874 -2.91128 0
-518.244 -2.90254 0
-516.612 -2.89152 0
-514.981 -2.88303 0
-513.35 -2.87336 0
-511.72 -2.86526 0
-510.09 -2.85744 0
-508.458 -2.84833 0
-506.827 -2.8385 0
-505.197 -2.8312 0
-503.568 -2.82293 0
-501.937 -2.81379 0
-500.305 -2.80535 0
-498.675 -2.79648 0
-497.045 -2.7882 0
-495.413 -2.7814 0
-493.782 -2.7725 0
-492.151 -2.76462 0
-490.52 -2.75758 0
-488.889 -2.75002 0
-487.257 -2.7431 0
-485.628 -2.73585 0
-483.995 -2.72866 0
-482.364 -2.72152 0
-480.733 -2.71512 0
-479.103 -2.709 0
-477.472 -2.70324 0
-475.842 -2.69668 0
-474.21 -2.69204 0
-472.581 -2.68561 0
-470.95 -2.67926 0
-469.319 -2.67255 0
-467.687 -2.66723 0
-466.057 -2.66224 0
-464.427 -2.65755 0
-462.797 -2.65265 0
-461.165 -2.64705 0
-459.534 -2.64299 0
-457.902 -2.63773 0
-456.271 -2.63498 0
-454.64 -2.62914 0
-453.009 -2.62378 0
-451.377 -2.62125 0
-449.748 -2.61684 0
-448.117 -2.61347 0
-446.488 -2.61157 0
-444.857 -2.60796 0
-443.227 -2.60373 0
-441.595 -2.60009 0
-439.964 -2.59845 0
-438.334 -2.59658 0
-436.702 -2.59354 0
-435.073 -2.58976 0
-433.442 -2.58484 0
-431.811 -2.58169 0
-430.18 -2.58082 0
-428.549 -2.57778 0
-426.919 -2.57482 0
-425.289 -2.5718 0
-423.66 -2.56937 0
-422.028 -2.56789 0
-420.397 -2.5648 0
-418.766 -2.56561 0
-417.136 -2.564 0
-415.507 -2.56122 0
-413.878 -2.55972 0
-412.247 -2.55871 0
-410.617 -2.55739 0
-408.986 -2.5537 0
-407.355 -2.55135 0
-405.727 -2.55091 0
-404.096 -2.54856 0
-402.466 -2.54848 0
-400.836 -2.54534 0
-399.206 -2.54497 0
-397.575 -2.54306 0
-395.945 -2.54117 0
-394.314 -2.53918 0
-392.684 -2.53985 0
-391.056 -2.53922 0
-389.426 -2.53558 0
-387.794 -2.53458 0
-386.165 -2.53227 0
-384.534 -2.52988 0
-382.906 -2.52907 0
-381.276 -2.52882 0
-379.645 -2.5268 0
-378.015 -2.52353 0
-376.385 -2.52252 0
-374.755 -2.51926 0
-373.126 -2.5166 0
-371.495 -2.51631 0
-369.865 -2.51512 0
-368.235 -2.51488 0
-366.606 -2.51307 0
-364.976 -2.51197 0
-363.347 -2.50945 0
-361.717 -2.50735 0
-360.088 -2.50626 0
-358.461 -2.50468 0
-356.83 -2.5029 0
-355.2 -2.50032 0
-353.571 -2.49895 0
-351.942 -2.49746 0
-350.312 -2.49484 0
-348.683 -2.49226 0
-347.053 -2.49132 0
-345.423 -2.48952 0
-343.794 -2.48793 0
-342.164 -2.48511 0
-340.533 -2.48266 0
-338.904 -2.48208 0
-337.276 -2.48072 0
-335.647 -2.47797 0
-334.017 -2.47492 0
-332.388 -2.47291 0
-330.758 -2.47058 0
-329.128 -2.46549 0
-327.499 -2.46682 0
-325.869 -2.46475 0
-324.24 -2.46158 0
-322.611 -2.45998 0
-320.981 -2.45526 0
-319.353 -2.45293 0
-317.723 -2.44951 0
-316.094 -2.44814 0
-314.464 -2.44655 0
-312.836 -2.44473 0
-311.205 -2.44187 0
-309.575 -2.43827 0
-307.946 -2.43581 0
-306.317 -2.43255 0
-304.688 -2.42916 0
-303.058 -2.42678 0
-301.428 -2.42454 0
-299.799 -2.42163 0
-298.171 -2.41639 0
-296.54 -2.41438 0
-294.91 -2.41018 0
-293.282 -2.40605 0
-291.653 -2.40169 0
-290.024 -2.40023 0
-288.396 -2.39858 0
-286.767 -2.39278 0
-285.135 -2.39026 0
-283.505 -2.38622 0
-281.874 -2.38418 0
-280.245 -2.3804 0
-278.617 -2.37728 0
-276.988 -2.37507 0
-275.358 -2.37176 0
-273.73 -2.36819 0
-272.099 -2.36327 0
-270.471 -2.35786 0
-268.842 -2.35482 0
-267.212 -2.35131 0
-265.583 -2.34835 0
-263.955 -2.34399 0
-262.326 -2.34166 0
-260.695 -2.33811 0
-259.067 -2.33423 0
-257.436 -2.33032 0
-255.806 -2.32693 0
-254.177 -2.32659 0
-252.547 -2.32099 0
-250.917 -2.31711 0
-249.291 -2.31325 0
-247.659 -2.30917 0
-246.029 -2.30604 0
-244.398 -2.30257 0
-242.771 -2.29937 0
-241.141 -2.29826 0
-239.511 -2.29406 0
-237.881 -2.29037 0
-236.251 -2.28574 0
-234.623 -2.28101 0
-232.994 -2.27831 0
-231.364 -2.27451 0
-229.734 -2.27204 0
-228.105 -2.26661 0
-226.476 -2.26472 0
-224.846 -2.26214 0
-223.215 -2.25774 0
-221.586 -2.25507 0
-219.956 -2.25267 0
-218.327 -2.24822 0
-216.696 -2.24515 0
-215.068 -2.2414 0
-213.44 -2.23854 0
-211.809 -2.23415 0
-210.179 -2.23214 0
-208.548 -2.22795 0
-206.919 -2.22389 0
-205.291 -2.2229 0
-203.661 -2.21992 0
-202.031 -2.21804 0
-200.402 -2.21486 0
-198.772 -2.21144 0
-197.142 -2.20985 0
-195.513 -2.20605 0
-193.884 -2.20265 0
-192.256 -2.19946 0
-190.627 -2.19861 0
-188.998 -2.19434 0
-187.366 -2.19179 0
-185.736 -2.18864 0
-184.107 -2.18474 0
-182.476 -2.1825 0
-180.846 -2.17931 0
-179.216 -2.17608 0
-177.589 -2.1731 0
-175.959 -2.17118 0
-174.328 -2.16991 0
-172.698 -2.16609 0
-171.069 -2.16516 0
-169.439 -2.1632 0
-167.812 -2.16079 0
-166.183 -2.15923 0
-164.552 -2.15417 0
-162.922 -2.15333 0
-161.295 -2.15006 0
-159.664 -2.14932 0
-158.036 -2.14763 0
-156.406 -2.14632 0
-154.776 -2.14239 0
-153.145 -2.13894 0
-151.515 -2.13358 0
-149.886 -2.13161 0
-148.257 -2.13114 0
-146.628 -2.13037 0
-144.998 -2.12913 0
-143.369 -2.1288 0
-141.741 -2.12593 0
-140.11 -2.12444 0
-138.48 -2.12171 0
-136.849 -2.12073 0
-135.221 -2.11786 0
-133.59 -2.11746 0
-131.961 -2.11528 0
-130.332 -2.11164 0
-128.704 -2.11102 0
-127.073 -2.10877 0
-125.443 -2.10695 0
-123.813 -2.1061 0
-122.184 -2.10378 0
-120.554 -2.10504 0
-118.927 -2.10411 0
-117.296 -2.10267 0
-115.665 -2.10364 0
-114.036 -2.10219 0
-112.407 -2.09768 0
-110.778 -2.09883 0
-109.149 -2.09561 0
-107.52 -2.09616 0
-105.892 -2.09391 0
-104.262 -2.09471 0
-102.632 -2.09563 0
-101.002 -2.09374 0
-99.3735 -2.09068 0
-97.7444 -2.08819 0
-96.1147 -2.0869 0
-94.4861 -2.08657 0
-92.8551 -2.08432 0
-91.2254 -2.08181 0
-89.598 -2.08466 0
-87.9676 -2.08456 0
-86.3379 -2.08525 0
-84.7075 -2.08491 0
-83.0793 -2.0866 0
-81.4495 -2.08411 0
-79.8217 -2.08433 0
-78.1913 -2.08247 0
-76.5626 -2.08352 0
-74.9348 -2.08322 0
-73.3069 -2.08155 0
-71.6789 -2.08063 0
-70.0509 -2.07954 0
-68.4206 -2.07857 0
-66.7911 -2.0769 0
-65.1616 -2.07622 0
-63.5315 -2.07701 0
-61.9027 -2.07562 0
-60.2743 -2.0746 0
-58.6445 -2.07629 0
-57.0145 -2.07515 0
-55.3865 -2.07391 0
-53.7581 -2.07359 0
-52.1291 -2.07418 0
-50.5006 -2.07068 0
-48.8725 -2.07423 0
-47.2402 -2.07346 0
-45.6124 -2.07145 0
-43.983 -2.07192 0
-42.3558 -2.07441 0
-40.7252 -2.07193 0
-39.0969 -2.07291 0
-37.4664 -2.07152 0
-35.8381 -2.07357 0
-34.2091 -2.07104 0
-32.5797 -2.07114 0
-30.9514 -2.07209 0
-29.3235 -2.07073 0
-27.6936 -2.07023 0
-26.0627 -2.06873 0
-24.4352 -2.06897 0
-22.8076 -2.06808 0
-21.1801 -2.06759 0
-19.5505 -2.06698 0
-17.9195 -2.06722 0
-16.289 -2.06738 0
-14.6602 -2.07058 0
-13.029 -2.06834 0
-11.4006 -2.06571 0
-9.77173 -2.06771 0
-8.14366 -2.06746 0
-6.51532 -2.0662 0
-4.88625 -2.06729 0
-3.25773 -2.06402 0
-1.6287 -2.06515 0
0 -2.06411 0
-1106.14 68.1027 0
-1105.75 60.9016 0
-1105.5 54.1316 0
-1105.21 47.6543 0
-1104.92 41.4575 0
-1104.63 35.5349 0
-1104.32 29.8972 0
-1103.95 24.5554 0
-1103.51 19.5434 0
-1103.02 14.9 0
-1102.5 10.6393 0
-1101.96 6.75993 0
-1101.39 3.25368 0
-1100.81 0.106619 0
-1100.21 -2.70046 0
-1099.59 -5.189 0
-1098.94 -7.3838 0
-1098.27 -9.30891 0
-1097.58 -10.9897 0
-1096.85 -12.4479 0
-1096.1 -13.7046 0
-1095.31 -14.7789 0
-1094.49 -15.6883 0
-1093.65 -16.4482 0
-1092.77 -17.073 0
-1091.86 -17.5745 0
-1090.93 -17.964 0
-1089.97 -18.2509 0
-1088.97 -18.4443 0
-1087.96 -18.5512 0
-1086.92 -18.5783 0
-1085.85 -18.5329 0
-1084.76 -18.4202 0
-1083.64 -18.2449 0
-1082.5 -18.0121 0
-1081.34 -17.7261 0
-1080.15 -17.3915 0
-1078.94 -17.0116 0
-1077.71 -16.5911 0
-1076.45 -16.1327 0
-1075.18 -15.6401 0
-1073.88 -15.1171 0
-1072.56 -14.5669 0
-1071.22 -13.9929 0
-1069.86 -13.3984 0
-1068.48 -12.7868 0
-1067.08 -12.1604 0
-1065.66 -11.5217 0
-1064.22 -10.8747 0
-1062.77 -10.2212 0
-1061.3 -9.5634 0
-1059.81 -8.90388 0
-1058.31 -8.24497 0
-1056.79 -7.5879 0
-1055.25 -6.93536 0
-1053.7 -6.2894 0
-1052.14 -5.65068 0
-1050.57 -5.0218 0
-1048.98 -4.40432 0
-1047.38 -3.79859 0
-1045.77 -3.20651 0
-1044.15 -2.62839 0
-1042.52 -2.06585 0
-1040.88 -1.52036 0
-1039.23 -0.992152 0
-1037.57 -0.482445 0
-1035.9 0.0087354 0
-1034.23 0.480852 0
-1032.55 0.93333 0
-1030.87 1.365 0
-1029.18 1.77671 0
-1027.48 2.16801 0
-1025.78 2.53805 0
-1024.08 2.88673 0
-1022.37 3.21396 0
-1020.66 3.52027 0
-1018.94 3.80531 0
-1017.22 4.06965 0
-1015.5 4.31279 0
-1013.78 4.53505 0
-1012.06 4.73713 0
-1010.34 4.91887 0
-1008.61 5.0807 0
-1006.89 5.22318 0
-1005.16 5.34583 0
-1003.43 5.45001 0
-1001.71 5.53558 0
-999.985 5.60362 0
-998.262 5.65396 0
-996.54 5.68682 0
-994.819 5.70381 0
-993.1 5.70488 0
-991.383 5.69096 0
-989.667 5.66122 0
-987.953 5.61774 0
-986.241 5.56067 0
-984.532 5.49048 0
-982.825 5.40802 0
-981.121 5.31366 0
-979.419 5.20778 0
-977.72 5.09162 0
-976.024 4.96535 0
-974.33 4.83005 0