<?xml version="1.0"?>
<VTKFile type="StructuredGrid"  version="0.1" byte_order="LittleEndian" compressor="vtkZLibDataCompressor">
  <StructuredGrid WholeExtent="0 700 0 30 0 0">
    <Piece Extent="0 700 0 30 0 0">
      <PointData Vectors="Velocity">
        <DataArray type="Float32" Name="Velocity" NumberOfComponents="3" format="ascii">
-1084.12 52.1128 0
-1084.36 45.8465 0
-1084.66 39.7692 0
-1085 34.0074 0
-1085.31 28.595 0
-1085.54 23.4412 0
-1085.77 18.4837 0
-1086.05 13.8174 0
-1086.34 9.53089 0
-1086.59 5.6391 0
-1086.82 2.13298 0
-1087 -0.998943 0
-1087.13 -3.77285 0
-1087.21 -6.2083 0
-1087.22 -8.32922 0
-1087.16 -10.1602 0
-1087.02 -11.7273 0
-1086.8 -13.0556 0
-1086.5 -14.1687 0
-1086.13 -15.0889 0
-1085.67 -15.836 0
-1085.15 -16.4284 0
-1084.55 -16.8834 0
-1083.89 -17.2158 0
-1083.18 -17.4389 0
-1082.4 -17.5652 0
-1081.57 -17.6057 0
-1080.69 -17.5692 0
-1079.77 -17.4638 0
-1078.81 -17.2984 0
-1077.8 -17.0788 0
-1076.75 -16.8116 0
-1075.67 -16.5014 0
-1074.56 -16.1536 0
-1073.41 -15.7727 0
-1072.22 -15.3628 0
-1071.01 -14.9272 0
-1069.77 -14.4698 0
-1068.5 -13.9935 0
-1067.2 -13.5019 0
-1065.87 -12.9974 0
-1064.52 -12.4831 0
-1063.14 -11.9622 0
-1061.74 -11.4356 0
-1060.31 -10.9079 0
-1058.86 -10.3797 0
-1057.39 -9.8533 0
-1055.9 -9.33094 0
-1054.39 -8.81481 0
-1052.87 -8.30536 0
-1051.32 -7.80545 0
-1049.76 -7.31629 0
-1048.18 -6.83849 0
-1046.58 -6.37396 0
-1044.98 -5.92362 0
-1043.36 -5.48838 0
-1041.72 -5.06906 0
-1040.08 -4.66679 0
-1038.42 -4.28126 0
-1036.76 -3.91405 0
-1035.09 -3.56416 0
-1033.41 -3.2343 0
-1031.72 -2.92224 0
-1030.03 -2.62956 0
-1028.33 -2.35699 0
-1026.62 -2.10253 0
-1024.91 -1.86786 0
-1023.2 -1.65212 0
-1021.48 -1.45578 0
-1019.76 -1.27789 0
-1018.04 -1.11931 0
-1016.32 -0.978864 0
-1014.6 -0.855954 0
-1012.87 -0.750219 0
-1011.15 -0.66204 0
-1009.43 -0.591269 0
-1007.7 -0.53597 0
-1005.98 -0.496911 0
-1004.26 -0.472715 0
-1002.55 -0.462356 0
-1000.83 -0.467184 0
-999.118 -0.484933 0
-997.407 -0.516157 0
-995.7 -0.559316 0
-993.995 -0.614027 0
-992.294 -0.679742 0
-990.597 -0.755146 0
-988.902 -0.84079 0
-987.212 -0.935382 0
-985.525 -1.03859 0
-983.842 -1.14927 0
-982.163 -1.26691 0
-980.488 -1.39074 0
-978.818 -1.52076 0
-977.151 -1.65586 0
-975.488 -1.7954 0
-973.829 -1.93989 0
-972.174 -2.08675 0
-970.523 -2.23698 0
-968.876 -2.38992 0
-967.233 -2.54386 0
-965.594 -2.6992 0
-963.958 -2.85611 0
-962.326 -3.01246 0
-960.698 -3.1695 0
-959.072 -3.32568 0
-957.451 -3.48033 0
-955.833 -3.63448 0
-954.218 -3.78666 0
-952.605 -3.93675 0
-950.995 -4.08373 0
-949.388 -4.2286 0
-947.784 -4.37029 0
-946.182 -4.50779 0
-944.582 -4.64202 0
-942.984 -4.77338 0
-941.389 -4.89938 0
-939.795 -5.02089 0
-938.203 -5.1393 0
-936.612 -5.25219 0
-935.024 -5.36114 0
-933.437 -5.46462 0
-931.85 -5.56355 0
-930.265 -5.65715 0
-928.681 -5.74614 0
-927.097 -5.82979 0
-925.515 -5.90679 0
-923.931 -5.98036 0
-922.35 -6.04757 0
-920.769 -6.10973 0
-919.188 -6.16734 0
-917.607 -6.22062 0
-916.025 -6.26808 0
-914.445 -6.31056 0
-912.864 -6.34778 0
-911.283 -6.37974 0
-909.701 -6.4075 0
-908.118 -6.43082 0
-906.536 -6.44923 0
-904.952 -6.46437 0
-903.369 -6.47313 0
-901.786 -6.47866 0
-900.201 -6.48041 0
-898.616 -6.47767 0
-897.03 -6.47201 0
-895.444 -6.4616 0
-893.855 -6.44943 0
-892.267 -6.43293 0
-890.677 -6.41309 0
-889.086 -6.39074 0
-887.495 -6.3653 0
-885.903 -6.33745 0
-884.31 -6.30578 0
-882.715 -6.2722 0
-881.118 -6.23663 0
-879.521 -6.20046 0
-877.923 -6.16129 0
-876.325 -6.11931 0
-874.725 -6.07693 0
-873.125 -6.03342 0
-871.523 -5.98795 0
-869.92 -5.94151 0
-868.316 -5.89406 0
-866.711 -5.84499 0
-865.105 -5.79658 0
-863.498 -5.74813 0
-861.89 -5.69753 0
-860.281 -5.6469 0
-858.671 -5.59623 0
-857.061 -5.54585 0
-855.449 -5.49538 0
-853.837 -5.44344 0
-852.224 -5.39509 0
-850.611 -5.3455 0
-848.996 -5.29702 0
-847.381 -5.24803 0
-845.765 -5.20001 0
-844.148 -5.15257 0
-842.53 -5.10501 0
-840.913 -5.05938 0
-839.293 -5.01546 0
-837.675 -4.97214 0
-836.056 -4.9286 0
-834.435 -4.88744 0
-832.815 -4.84743 0
-831.193 -4.80912 0
-829.571 -4.77051 0
-827.949 -4.73546 0
-826.327 -4.6992 0
-824.705 -4.66517 0
-823.081 -4.63308 0
-821.457 -4.603 0
-819.834 -4.57281 0
-818.211 -4.54557 0
-816.589 -4.51961 0
-814.964 -4.49406 0
-813.339 -4.47143 0
-811.715 -4.44932 0
-810.091 -4.4298 0
-808.466 -4.41078 0
-806.843 -4.39376 0
-805.219 -4.37831 0
-803.595 -4.36241 0
-801.97 -4.34945 0
-800.345 -4.33729 0
-798.722 -4.32728 0
-797.098 -4.3181 0
-795.474 -4.31046 0
-793.851 -4.30335 0
-792.227 -4.29838 0
-790.604 -4.29671 0
-788.981 -4.29522 0
-787.359 -4.29198 0
-785.736 -4.29077 0
-784.113 -4.29312 0
-782.491 -4.29633 0
-780.869 -4.29918 0
-779.248 -4.30294 0
-777.627 -4.30626 0
-776.005 -4.31285 0
-774.385 -4.31984 0
-772.764 -4.32771 0
-771.144 -4.33572 0
-769.524 -4.3454 0
-767.905 -4.35539 0
-766.286 -4.36633 0
-764.666 -4.37797 0
-763.047 -4.39011 0
-761.429 -4.40252 0
-759.81 -4.41446 0
-758.193 -4.42757 0
-756.575 -4.44061 0
-754.958 -4.45521 0
-753.341 -4.46976 0
-751.724 -4.48269 0
-750.108 -4.49808 0
-748.491 -4.5116 0
-746.876 -4.52804 0
-745.258 -4.54369 0
-743.643 -4.56061 0
-742.028 -4.57615 0
-740.412 -4.5921 0
-738.798 -4.60634 0
-737.184 -4.62214 0
-735.57 -4.63613 0
-733.955 -4.65256 0
-732.342 -4.6665 0
-730.728 -4.68261 0
-729.115 -4.69627 0
-727.503 -4.71058 0
-725.89 -4.72515 0
-724.277 -4.74053 0
-722.664 -4.75263 0
-721.052 -4.76679 0
-719.439 -4.77832 0
-717.827 -4.7914 0
-716.214 -4.80434 0
-714.602 -4.81586 0
-712.991 -4.82849 0
-711.38 -4.83895 0
-709.768 -4.84896 0
-708.156 -4.86028 0
-706.545 -4.87124 0
-704.934 -4.8815 0
-703.322 -4.88994 0
-701.711 -4.89858 0
-700.101 -4.90625 0
-698.491 -4.9145 0
-696.879 -4.92209 0
-695.269 -4.92957 0
-693.659 -4.93817 0
-692.047 -4.94331 0
-690.438 -4.94836 0
-688.826 -4.95351 0
-687.215 -4.95862 0
-685.604 -4.96261 0
-683.993 -4.96807 0
-682.381 -4.97183 0
-680.771 -4.9746 0
-679.161 -4.97528 0
-677.549 -4.97944 0
-675.938 -4.97948 0
-674.328 -4.98235 0
-672.717 -4.98356 0
-671.107 -4.98503 0
-669.495 -4.98374 0
-667.883 -4.98476 0
-666.273 -4.98393 0
-664.662 -4.98475 0
-663.051 -4.98348 0
-661.44 -4.98285 0
-659.828 -4.98107 0
-658.217 -4.97746 0
-656.605 -4.97493 0
-654.993 -4.97175 0
-653.381 -4.96909 0
-651.769 -4.96681 0
-650.157 -4.96416 0
-648.546 -4.96024 0
-646.934 -4.95651 0
-645.323 -4.95277 0
-643.711 -4.94962 0
-642.097 -4.94442 0
-640.485 -4.94109 0
-638.873 -4.93496 0
-637.261 -4.93121 0
-635.647 -4.92647 0
-634.036 -4.92209 0
-632.422 -4.917 0
-630.809 -4.91022 0
-629.195 -4.90545 0
-627.582 -4.89956 0
-625.97 -4.89281 0
-624.355 -4.88836 0
-622.742 -4.88254 0
-621.13 -4.87737 0
-619.517 -4.87212 0
-617.904 -4.86762 0
-616.291 -4.86054 0
-614.675 -4.85567 0
-613.061 -4.84889 0
-611.447 -4.84366 0
-609.833 -4.84013 0
-608.22 -4.83326 0
-606.606 -4.82673 0
-604.991 -4.82183 0
-603.379 -4.81578 0
-601.763 -4.80979 0
-600.147 -4.80566 0
-598.535 -4.79917 0
-596.92 -4.79428 0
-595.305 -4.79038 0
-593.692 -4.78498 0
-592.075 -4.77967 0
-590.463 -4.7735 0
-588.848 -4.7723 0
-587.233 -4.76889 0
-585.62 -4.76448 0
-584.005 -4.75876 0
-582.39 -4.75485 0
-580.775 -4.75177 0
-579.161 -4.7476 0
-577.545 -4.74375 0
-575.931 -4.74209 0
-574.315 -4.73857 0
-572.701 -4.73533 0
-571.088 -4.73271 0
-569.473 -4.72876 0
-567.859 -4.72619 0
-566.244 -4.72233 0
-564.63 -4.71947 0
-563.014 -4.71653 0
-561.398 -4.7148 0
-559.783 -4.71444 0
-558.168 -4.71353 0
-556.552 -4.71076 0
-554.938 -4.70876 0
-553.322 -4.708 0
-551.708 -4.7071 0
-550.094 -4.70706 0
-548.478 -4.70635 0
-546.864 -4.70583 0
-545.249 -4.70459 0
-543.634 -4.70474 0
-542.019 -4.70379 0
-540.407 -4.7033 0
-538.792 -4.7053 0
-537.178 -4.70414 0
-535.563 -4.70144 0
-533.95 -4.70134 0
-532.334 -4.70231 0
-530.722 -4.70244 0
-529.105 -4.70382 0
-527.49 -4.703 0
-525.876 -4.70426 0
-524.263 -4.70559 0
-522.649 -4.70624 0
-521.033 -4.70703 0
-519.419 -4.70771 0
-517.803 -4.70536 0
-516.188 -4.70959 0
-514.574 -4.71002 0
-512.962 -4.71161 0
-511.348 -4.71459 0
-509.732 -4.71609 0
-508.12 -4.71806 0
-506.506 -4.71911 0
-504.891 -4.72021 0
-503.277 -4.72114 0
-501.663 -4.72201 0
-500.048 -4.72168 0
-498.436 -4.72192 0
-496.82 -4.72463 0
-495.207 -4.7271 0
-493.594 -4.7271 0
-491.98 -4.72854 0
-490.364 -4.73034 0
-488.752 -4.7309 0
-487.137 -4.73403 0
-485.523 -4.73637 0
-483.91 -4.73932 0
-482.297 -4.74041 0
-480.683 -4.7423 0
-479.072 -4.74369 0
-477.459 -4.74419 0
-475.846 -4.74549 0
-474.232 -4.74926 0
-472.618 -4.75058 0
-471.004 -4.75111 0
-469.388 -4.75052 0
-467.775 -4.75329 0
-466.161 -4.75581 0
-464.549 -4.75938 0
-462.935 -4.75968 0
-461.322 -4.76152 0
-459.708 -4.76203 0
-458.095 -4.76425 0
-456.483 -4.76489 0
-454.869 -4.76621 0
-453.255 -4.76794 0
-451.639 -4.76723 0
-450.026 -4.76892 0
-448.412 -4.77181 0
-446.801 -4.7731 0
-445.188 -4.77261 0
-443.575 -4.77345 0
-441.963 -4.77565 0
-440.349 -4.77436 0
-438.735 -4.77568 0
-437.12 -4.77841 0
-435.507 -4.78012 0
-433.895 -4.78104 0
-432.281 -4.78016 0
-430.67 -4.78233 0
-429.056 -4.78417 0
-427.443 -4.78293 0
-425.829 -4.78507 0
-424.215 -4.78636 0
-422.602 -4.78774 0
-420.989 -4.78682 0
-419.377 -4.78878 0
-417.763 -4.78872 0
-416.15 -4.7901 0
-414.538 -4.78981 0
-412.923 -4.79364 0
-411.312 -4.79188 0
-409.699 -4.79031 0
-408.084 -4.79246 0
-406.47 -4.79044 0
-404.857 -4.7904 0
-403.243 -4.78979 0
-401.629 -4.79035 0
-400.016 -4.79312 0
-398.402 -4.7939 0
-396.79 -4.79328 0
-395.178 -4.79322 0
-393.565 -4.79297 0
-391.953 -4.79278 0
-390.34 -4.7897 0
-388.728 -4.79047 0
-387.115 -4.79185 0
-385.503 -4.79013 0
-383.889 -4.78872 0
-382.276 -4.78794 0
-380.661 -4.78664 0
-379.046 -4.78886 0
-377.434 -4.78955 0
-375.822 -4.78942 0
-374.209 -4.78723 0
-372.596 -4.78701 0
-370.983 -4.78625 0
-369.37 -4.78539 0
-367.756 -4.78481 0
-366.142 -4.78454 0
-364.528 -4.78565 0
-362.917 -4.78366 0
-361.304 -4.78553 0
-359.691 -4.7844 0
-358.076 -4.78387 0
-356.461 -4.78277 0
-354.849 -4.78262 0
-353.235 -4.78025 0
-351.623 -4.77766 0
-350.008 -4.77727 0
-348.394 -4.77683 0
-346.782 -4.77607 0
-345.168 -4.77483 0
-343.554 -4.77423 0
-341.941 -4.77515 0
-340.327 -4.77621 0
-338.714 -4.77593 0
-337.102 -4.77739 0
-335.486 -4.77498 0
-333.873 -4.77405 0
-332.258 -4.77237 0
-330.647 -4.77152 0
-329.035 -4.7726 0
-327.421 -4.77347 0
-325.809 -4.77105 0
-324.196 -4.77264 0
-322.583 -4.77117 0
-320.969 -4.77137 0
-319.355 -4.77135 0
-317.741 -4.76876 0
-316.13 -4.76846 0
-314.517 -4.76814 0
-312.904 -4.76683 0
-311.289 -4.76618 0
-309.675 -4.76667 0
-308.062 -4.76647 0
-306.448 -4.76339 0
-304.836 -4.76594 0
-303.224 -4.76439 0
-301.61 -4.76511 0
-299.995 -4.76528 0
-298.381 -4.76386 0
-296.771 -4.76486 0
-295.155 -4.76378 0
-293.543 -4.76253 0
-291.931 -4.76147 0
-290.317 -4.76297 0
-288.703 -4.76138 0
-287.09 -4.76006 0
-285.477 -4.76255 0
-283.865 -4.76108 0
-282.253 -4.76079 0
-280.637 -4.75852 0
-279.025 -4.7587 0
-277.41 -4.75842 0
-275.797 -4.76195 0
-274.183 -4.7604 0
-272.57 -4.76097 0
-270.955 -4.76241 0
-269.341 -4.76086 0
-267.727 -4.76038 0
-266.115 -4.7617 0
-264.502 -4.76135 0
-262.889 -4.76097 0
-261.276 -4.76179 0
-259.663 -4.76336 0
-258.052 -4.76303 0
-256.438 -4.7628 0
-254.824 -4.76037 0
-253.207 -4.76096 0
-251.595 -4.76465 0
-249.984 -4.76257 0
-248.37 -4.76113 0
-246.758 -4.76097 0
-245.144 -4.76242 0
-243.529 -4.75902 0
-241.917 -4.76091 0
-240.304 -4.76138 0
-238.692 -4.76193 0
-237.077 -4.76209 0
-235.466 -4.76412 0
-233.85 -4.76199 0
-232.238 -4.76224 0
-230.626 -4.76101 0
-229.014 -4.76427 0
-227.401 -4.76329 0
-225.788 -4.76543 0
-224.175 -4.76747 0
-222.561 -4.76388 0
-220.948 -4.7673 0
-219.335 -4.76621 0
-217.722 -4.76636 0
-216.108 -4.76676 0
-214.495 -4.76742 0
-212.881 -4.76732 0
-211.269 -4.76598 0
-209.656 -4.76583 0
-208.042 -4.76733 0
-206.428 -4.76618 0
-204.816 -4.76836 0
-203.204 -4.77093 0
-201.59 -4.76798 0
-199.975 -4.76806 0
-198.364 -4.76801 0
-196.749 -4.7677 0
-195.137 -4.76903 0
-193.527 -4.76963 0
-191.912 -4.76979 0
-190.3 -4.77017 0
-188.689 -4.77052 0
-187.072 -4.77156 0
-185.459 -4.7687 0
-183.847 -4.77009 0
-182.234 -4.77123 0
-180.62 -4.77073 0
-179.008 -4.7701 0
-177.394 -4.76946 0
-175.781 -4.76945 0
-174.17 -4.77039 0
-172.557 -4.7715 0
-170.946 -4.77251 0
-169.332 -4.76877 0
-167.722 -4.7719 0
-166.109 -4.77001 0
-164.495 -4.77039 0
-162.883 -4.76981 0
-161.27 -4.76841 0
-159.656 -4.76903 0
-158.043 -4.76811 0
-156.43 -4.77159 0
-154.818 -4.76991 0
-153.204 -4.76868 0
-151.593 -4.77033 0
-149.98 -4.77163 0
-148.366 -4.77187 0
-146.755 -4.77267 0
-145.141 -4.76975 0
-143.528 -4.76942 0
-141.915 -4.77026 0
-140.303 -4.77089 0
-138.69 -4.77079 0
-137.077 -4.76965 0
-135.464 -4.76815 0
-133.852 -4.7681 0
-132.238 -4.76788 0
-130.627 -4.76575 0
-129.014 -4.76916 0
-127.4 -4.76895 0
-125.787 -4.77204 0
-124.175 -4.77111 0
-122.562 -4.7702 0
-120.948 -4.77104 0
-119.336 -4.77056 0
-117.726 -4.77289 0
-116.11 -4.77113 0
-114.497 -4.77033 0
-112.884 -4.77069 0
-111.272 -4.77066 0
-109.66 -4.77078 0
-108.048 -4.76828 0
-106.436 -4.76921 0
-104.823 -4.76992 0
-103.209 -4.77096 0
-101.595 -4.77106 0
-99.9829 -4.77108 0
-98.3718 -4.77253 0
-96.7575 -4.77114 0
-95.1451 -4.77125 0
-93.5333 -4.77079 0
-91.92 -4.77042 0
-90.3062 -4.77142 0
-88.6937 -4.77143 0
-87.0813 -4.77313 0
-85.4681 -4.77277 0
-83.8553 -4.77176 0
-82.2419 -4.77172 0
-80.6305 -4.7719 0
-79.0164 -4.77243 0
-77.405 -4.77228 0
-75.7929 -4.77169 0
-74.1797 -4.7712 0
-72.5685 -4.76998 0
-70.9566 -4.77148 0
-69.3428 -4.77194 0
-67.7302 -4.77109 0
-66.118 -4.77242 0
-64.505 -4.77233 0
-62.8919 -4.77207 0
-61.2781 -4.77085 0
-59.6656 -4.77057 0
-58.0537 -4.77066 0
-56.4418 -4.77246 0
-54.8283 -4.77171 0
-53.2154 -4.77086 0
-51.6021 -4.77151 0
-49.9888 -4.77181 0
-48.3781 -4.77091 0
-46.7656 -4.77093 0
-45.1553 -4.77092 0
-43.5408 -4.77107 0
-41.9271 -4.77114 0
-40.3153 -4.76881 0
-38.7015 -4.77099 0
-37.0898 -4.77089 0
-35.4769 -4.76971 0
-33.8649 -4.76894 0
-32.2496 -4.77077 0
-30.6372 -4.76914 0
-29.0245 -4.77032 0
-27.4115 -4.76926 0
-25.7983 -4.76889 0
-24.188 -4.76782 0
-22.5775 -4.77006 0
-20.9643 -4.76981 0
-19.3504 -4.77059 0
-17.7404 -4.76902 0
-16.1257 -4.77065 0
-14.5134 -4.77044 0
-12.899 -4.76801 0
-11.2857 -4.76514 0
-9.6735 -4.76839 0
-8.06151 -4.76889 0
-6.44998 -4.77012 0
-4.83616 -4.7687 0
-3.22286 -4.76903 0
-1.61171 -4.76848 0
0 -4.76943 0
-1090.39 52.3958 0
-1090.47 46.068 0
-1090.53 39.9615 0
-1090.54 34.1795 0
-1090.54 28.751 0
-1090.61 23.5879 0
-1090.64 18.6233 0
-1090.58 13.9487 0
-1090.48 9.65441 0
-1090.34 5.75852 0
-1090.19 2.25583 0
-1090.01 -0.864378 0
-1089.79 -3.61574 0
-1089.54 -6.01864 0
-1089.24 -8.09697 0
-1088.9 -9.87779 0
-1088.5 -11.3891 0
-1088.05 -12.6583 0
-1087.54 -13.7104 0
-1086.98 -14.5695 0
-1086.36 -15.257 0
-1085.68 -15.7915 0
-1084.96 -16.1909 0
-1084.18 -16.4705 0
-1083.36 -16.6436 0
-1082.49 -16.7231 0
-1081.58 -16.7187 0
-1080.63 -16.6401 0
-1079.64 -16.4956 0
-1078.62 -16.2927 0
-1077.56 -16.0376 0
-1076.47 -15.736 0
-1075.35 -15.3931 0
-1074.2 -15.0143 0
-1073.02 -14.6033 0
-1071.81 -14.1637 0
-1070.57 -13.7 0
-1069.31 -13.2152 0
-1068.02 -12.7125 0
-1066.71 -12.1949 0
-1065.37 -11.6656 0
-1064.01 -11.1276 0
-1062.63 -10.5831 0
-1061.22 -10.0344 0
-1059.8 -9.48495 0
-1058.35 -8.93594 0
-1056.88 -8.39012 0
-1055.4 -7.84895 0
-1053.89 -7.31464 0
-1052.37 -6.78841 0
-1050.84 -6.27218 0
-1049.28 -5.76793 0
-1047.72 -5.27572 0
-1046.14 -4.79776 0
-1044.55 -4.33482 0
-1042.94 -3.88792 0
-1041.32 -3.45754 0
-1039.7 -3.04485 0
-1038.06 -2.65043 0
-1036.41 -2.27423 0
-1034.76 -1.91711 0
-1033.1 -1.57941 0
-1031.43 -1.26136 0
-1029.75 -0.963457 0
-1028.07 -0.685177 0
-1026.38 -0.426991 0
-1024.69 -0.188235 0
-1023 0.0308852 0
-1021.3 0.229926 0
-1019.6 0.409656 0
-1017.9 0.570087 0
-1016.19 0.711724 0
-1014.49 0.83539 0
-1012.78 0.941398 0
-1011.08 1.02905 0
-1009.37 1.1001 0
-1007.66 1.15393 0
-1005.96 1.19197 0
-1004.25 1.21505 0
-1002.55 1.22295 0
-1000.85 1.21628 0
-999.145 1.19609 0
-997.446 1.16251 0
-995.75 1.11657 0
-994.057 1.05927 0
-992.366 0.990433 0
-990.678 0.911823 0
-988.993 0.822863 0
-987.31 0.725061 0
-985.632 0.617998 0
-983.956 0.504099 0
-982.284 0.38272 0
-980.615 0.255042 0
-978.95 0.121261 0
-977.287 -0.0170998 0
-975.628 -0.160277 0
-973.973 -0.308166 0
-972.321 -0.45926 0
-970.673 -0.612706 0
-969.028 -0.769392 0
-967.387 -0.927046 0
-965.748 -1.08562 0
-964.113 -1.24555 0
-962.481 -1.40595 0
-960.852 -1.56556 0
-959.226 -1.72479 0
-957.604 -1.8831 0
-955.983 -2.0398 0
-954.366 -2.19485 0
-952.751 -2.34726 0
-951.139 -2.49694 0
-949.529 -2.64418 0
-947.921 -2.78766 0
-946.316 -2.92748 0
-944.712 -3.06373 0
-943.111 -3.19696 0
-941.511 -3.32473 0
-939.913 -3.44855 0
-938.316 -3.56783 0
-936.721 -3.68275 0
-935.128 -3.79284 0
-933.535 -3.89759 0
-931.944 -3.99734 0
-930.354 -4.09191 0
-928.765 -4.18186 0
-927.176 -4.26593 0
-925.588 -4.34406 0
-924.001 -4.41724 0
-922.414 -4.48553 0
-920.827 -4.54799 0
-919.241 -4.60641 0
-917.655 -4.65895 0
-916.069 -4.70615 0
-914.484 -4.74912 0
-912.898 -4.78598 0
-911.312 -4.81797 0
-909.725 -4.84504 0
-908.139 -4.86791 0
-906.552 -4.88622 0
-904.965 -4.90039 0
-903.377 -4.90976 0
-901.789 -4.91458 0
-900.201 -4.91442 0
-898.611 -4.91233 0
-897.022 -4.90551 0
-895.431 -4.89485 0
-893.84 -4.88134 0
-892.249 -4.8639 0
-890.656 -4.84347 0
-889.063 -4.81995 0
-887.468 -4.79391 0
-885.873 -4.76449 0
-884.276 -4.73245 0
-882.68 -4.69814 0
-881.082 -4.6614 0
-879.484 -4.62347 0
-877.884 -4.58362 0
-876.283 -4.54127 0
-874.682 -4.49856 0
-873.08 -4.45342 0
-871.477 -4.40696 0
-869.874 -4.35986 0
-868.269 -4.31017 0
-866.663 -4.26182 0
-865.056 -4.21142 0
-863.449 -4.16202 0
-861.841 -4.11141 0
-860.232 -4.05952 0
-858.622 -4.00794 0
-857.011 -3.95706 0
-855.4 -3.90563 0
-853.788 -3.85364 0
-852.176 -3.8037 0
-850.562 -3.75385 0
-848.948 -3.70417 0
-847.333 -3.65479 0
-845.718 -3.60579 0
-844.101 -3.55758 0
-842.485 -3.50996 0
-840.868 -3.46388 0
-839.251 -3.41875 0
-837.633 -3.37578 0
-836.014 -3.33177 0
-834.395 -3.28997 0
-832.774 -3.24976 0
-831.155 -3.21021 0
-829.535 -3.17193 0
-827.914 -3.13501 0
-826.293 -3.09922 0
-824.672 -3.06503 0
-823.051 -3.03326 0
-821.429 -3.00161 0
-819.806 -2.97236 0
-818.184 -2.9456 0
-816.562 -2.91813 0
-814.94 -2.89331 0
-813.318 -2.87005 0
-811.695 -2.84873 0
-810.072 -2.82802 0
-808.449 -2.80944 0
-806.827 -2.79253 0
-805.204 -2.77623 0
-803.581 -2.76117 0
-801.958 -2.7481 0
-800.335 -2.73588 0
-798.713 -2.72649 0
-797.09 -2.71731 0
-795.468 -2.70942 0
-793.845 -2.70282 0
-792.224 -2.69852 0
-790.602 -2.6962 0
-788.98 -2.69381 0
-787.357 -2.69293 0
-785.736 -2.69147 0
-784.115 -2.69411 0
-782.494 -2.69631 0
-780.873 -2.70013 0
-779.252 -2.70354 0
-777.632 -2.70854 0
-776.012 -2.71457 0
-774.392 -2.7215 0
-772.772 -2.72966 0
-771.153 -2.73834 0
-769.534 -2.74779 0
-767.915 -2.75859 0
-766.296 -2.76986 0
-764.678 -2.78129 0
-763.059 -2.79421 0
-761.441 -2.80654 0
-759.823 -2.81863 0
-758.205 -2.83235 0
-756.588 -2.84611 0
-754.971 -2.86004 0
-753.355 -2.87423 0
-751.738 -2.88933 0
-750.122 -2.90352 0
-748.506 -2.9186 0
-746.89 -2.93444 0
-745.275 -2.9507 0
-743.659 -2.96691 0
-742.043 -2.98282 0
-740.428 -2.99821 0
-738.813 -3.01345 0
-737.199 -3.02953 0
-735.584 -3.04439 0
-733.971 -3.05996 0
-732.356 -3.07542 0
-730.742 -3.09062 0
-729.129 -3.10527 0
-727.516 -3.11981 0
-725.904 -3.13453 0
-724.291 -3.14897 0
-722.677 -3.1616 0
-721.064 -3.17594 0
-719.452 -3.18836 0
-717.84 -3.20104 0
-716.227 -3.21388 0
-714.614 -3.22674 0
-713.003 -3.23842 0
-711.391 -3.24808 0
-709.778 -3.2597 0
-708.167 -3.27046 0
-706.555 -3.28105 0
-704.944 -3.29164 0
-703.331 -3.30092 0
-701.72 -3.31016 0
-700.109 -3.31773 0
-698.498 -3.32606 0
-696.886 -3.33339 0
-695.276 -3.34157 0
-693.665 -3.34845 0
-692.053 -3.35363 0
-690.441 -3.35916 0
-688.83 -3.36467 0
-687.219 -3.36972 0
-685.608 -3.37398 0
-683.997 -3.37899 0
-682.386 -3.38303 0
-680.774 -3.3854 0
-679.163 -3.38741 0
-677.552 -3.3895 0
-675.941 -3.39189 0
-674.33 -3.39282 0
-672.718 -3.39428 0
-671.107 -3.39545 0
-669.495 -3.39486 0
-667.883 -3.39496 0
-666.273 -3.39509 0
-664.661 -3.39602 0
-663.05 -3.3946 0
-661.438 -3.39349 0
-659.826 -3.39105 0
-658.214 -3.3881 0
-656.603 -3.38601 0
-654.991 -3.38267 0
-653.379 -3.37948 0
-651.767 -3.37716 0
-650.155 -3.3739 0
-648.543 -3.37042 0
-646.931 -3.36676 0
-645.319 -3.3627 0
-643.706 -3.35906 0
-642.093 -3.35492 0
-640.48 -3.34952 0
-638.868 -3.34523 0
-637.255 -3.34024 0
-635.642 -3.33616 0
-634.03 -3.33091 0
-632.415 -3.32536 0
-630.803 -3.31909 0
-629.19 -3.31409 0
-627.578 -3.30884 0
-625.964 -3.30232 0
-624.351 -3.29597 0
-622.738 -3.29267 0
-621.126 -3.28686 0
-619.512 -3.28135 0
-617.897 -3.27519 0
-616.284 -3.26928 0
-614.67 -3.26484 0
-613.056 -3.25721 0
-611.442 -3.25201 0
-609.828 -3.24762 0
-608.214 -3.24289 0
-606.6 -3.23466 0
-604.986 -3.22994 0
-603.372 -3.22494 0
-601.758 -3.21863 0
-600.144 -3.21296 0
-598.529 -3.20737 0
-596.916 -3.2021 0
-595.301 -3.19876 0
-593.687 -3.19236 0
-592.073 -3.18738 0
-590.46 -3.18254 0
-588.844 -3.18015 0
-587.23 -3.17663 0
-585.615 -3.17228 0
-584.001 -3.16631 0
-582.387 -3.16241 0
-580.772 -3.15958 0
-579.157 -3.15441 0
-577.542 -3.15091 0
-575.927 -3.14909 0
-574.313 -3.14589 0
-572.698 -3.14301 0
-571.084 -3.13978 0
-569.47 -3.13671 0
-567.856 -3.13352 0
-566.241 -3.13041 0
-564.627 -3.12731 0
-563.011 -3.1248 0
-561.396 -3.12254 0
-559.782 -3.12103 0
-558.166 -3.12094 0
-556.551 -3.11834 0
-554.937 -3.11699 0
-553.322 -3.11561 0
-551.707 -3.11359 0
-550.093 -3.11407 0
-548.478 -3.11282 0
-546.862 -3.11355 0
-545.249 -3.11126 0
-543.635 -3.1116 0
-542.02 -3.11185 0
-540.406 -3.11154 0
-538.791 -3.11219 0
-537.177 -3.11111 0
-535.563 -3.11041 0
-533.948 -3.1095 0
-532.335 -3.11038 0
-530.721 -3.10909 0
-529.106 -3.11082 0
-527.49 -3.11094 0
-525.876 -3.11194 0
-524.262 -3.11361 0
-522.648 -3.11437 0
-521.033 -3.1146 0
-519.418 -3.11432 0
-517.804 -3.11462 0
-516.19 -3.11732 0
-514.576 -3.1198 0
-512.962 -3.11946 0
-511.348 -3.12313 0
-509.734 -3.12428 0
-508.12 -3.12585 0
-506.506 -3.12715 0
-504.892 -3.12835 0
-503.278 -3.12995 0
-501.665 -3.12841 0
-500.05 -3.13028 0
-498.436 -3.13225 0
-496.822 -3.13273 0
-495.208 -3.13595 0
-493.595 -3.13492 0
-491.981 -3.13651 0
-490.367 -3.13845 0
-488.752 -3.14026 0
-487.14 -3.14294 0
-485.525 -3.14594 0
-483.912 -3.14745 0
-482.299 -3.14865 0
-480.685 -3.15161 0
-479.07 -3.15212 0
-477.457 -3.15338 0
-475.846 -3.15424 0
-474.232 -3.15778 0
-472.617 -3.1586 0
-471.003 -3.15841 0
-469.39 -3.16 0
-467.775 -3.1628 0
-466.163 -3.16544 0
-464.55 -3.1662 0
-462.938 -3.16791 0
-461.322 -3.17086 0
-459.709 -3.17144 0
-458.097 -3.17289 0
-456.482 -3.17488 0
-454.869 -3.1749 0
-453.256 -3.17557 0
-451.641 -3.17547 0
-450.029 -3.17812 0
-448.416 -3.17947 0
-446.801 -3.18026 0
-445.189 -3.18262 0
-443.576 -3.18257 0
-441.964 -3.18438 0
-440.35 -3.18435 0
-438.737 -3.18399 0
-437.124 -3.18773 0
-435.51 -3.18922 0
-433.896 -3.18902 0
-432.282 -3.1895 0
-430.669 -3.19172 0
-429.056 -3.19266 0
-427.441 -3.19232 0
-425.83 -3.19359 0
-424.217 -3.19422 0
-422.604 -3.19488 0
-420.991 -3.19552 0
-419.378 -3.19627 0
-417.765 -3.19818 0
-416.153 -3.19906 0
-414.538 -3.19867 0
-412.924 -3.2011 0
-411.31 -3.19987 0
-409.696 -3.19942 0
-408.083 -3.19997 0
-406.47 -3.19881 0
-404.857 -3.19816 0
-403.244 -3.19901 0
-401.631 -3.19974 0
-400.017 -3.20132 0
-398.404 -3.20331 0
-396.791 -3.20314 0
-395.178 -3.20211 0
-393.566 -3.20123 0
-391.953 -3.20095 0
-390.34 -3.19971 0
-388.726 -3.19957 0
-387.113 -3.19913 0
-385.499 -3.19927 0
-383.887 -3.19701 0
-382.274 -3.19624 0
-380.66 -3.19562 0
-379.047 -3.19658 0
-377.435 -3.1979 0
-375.82 -3.19653 0
-374.207 -3.1975 0
-372.594 -3.19655 0
-370.981 -3.19575 0
-369.368 -3.19506 0
-367.755 -3.19341 0
-366.141 -3.19347 0
-364.529 -3.19359 0
-362.916 -3.19234 0
-361.301 -3.19318 0
-359.688 -3.19371 0
-358.075 -3.19164 0
-356.461 -3.19182 0
-354.846 -3.19111 0
-353.234 -3.18933 0
-351.621 -3.18777 0
-350.008 -3.18633 0
-348.395 -3.18644 0
-346.782 -3.18577 0
-345.169 -3.18392 0
-343.555 -3.18356 0
-341.942 -3.18325 0
-340.328 -3.18333 0
-338.715 -3.18368 0
-337.101 -3.18499 0
-335.487 -3.18226 0
-333.872 -3.18239 0
-332.26 -3.18178 0
-330.647 -3.17993 0
-329.033 -3.18125 0
-327.421 -3.18211 0
-325.808 -3.18024 0
-324.196 -3.18153 0
-322.582 -3.18026 0
-320.968 -3.17891 0
-319.354 -3.18008 0
-317.741 -3.17718 0
-316.129 -3.17718 0
-314.515 -3.17704 0
-312.902 -3.1761 0
-311.289 -3.17576 0
-309.675 -3.17471 0
-308.062 -3.17471 0
-306.449 -3.17406 0
-304.836 -3.17517 0
-303.221 -3.17297 0
-301.609 -3.17329 0
-299.995 -3.1738 0
-298.382 -3.1735 0
-296.768 -3.17197 0
-295.154 -3.17171 0
-293.541 -3.17281 0
-291.929 -3.16976 0
-290.317 -3.16982 0
-288.703 -3.17031 0
-287.089 -3.16972 0
-285.477 -3.1704 0
-283.864 -3.16879 0
-282.251 -3.16863 0
-280.637 -3.16817 0
-279.023 -3.16817 0
-277.411 -3.16863 0
-275.798 -3.16891 0
-274.183 -3.16871 0
-272.57 -3.16848 0
-270.956 -3.16929 0
-269.341 -3.16898 0
-267.728 -3.16973 0
-266.115 -3.17092 0
-264.503 -3.17023 0
-262.89 -3.17112 0
-261.278 -3.17065 0
-259.664 -3.17232 0
-258.05 -3.17077 0
-256.438 -3.17 0
-254.824 -3.16697 0
-253.211 -3.1702 0
-251.597 -3.17263 0
-249.982 -3.17188 0
-248.371 -3.17192 0
-246.757 -3.17039 0
-245.143 -3.17026 0
-243.529 -3.1698 0
-241.916 -3.17008 0
-240.303 -3.1713 0
-238.69 -3.16964 0
-237.077 -3.17121 0
-235.463 -3.17139 0
-233.85 -3.17096 0
-232.238 -3.17162 0
-230.626 -3.17082 0
-229.012 -3.17203 0
-227.4 -3.17401 0
-225.787 -3.1746 0
-224.174 -3.17403 0
-222.56 -3.17446 0
-220.947 -3.17431 0
-219.334 -3.17551 0
-217.721 -3.17477 0
-216.107 -3.17663 0
-214.495 -3.17817 0
-212.882 -3.17564 0
-211.268 -3.17585 0
-209.655 -3.17523 0
-208.044 -3.1752 0
-206.43 -3.17604 0
-204.817 -3.17933 0
-203.203 -3.17786 0
-201.591 -3.17717 0
-199.977 -3.17761 0
-198.365 -3.17619 0
-196.751 -3.17736 0
-195.14 -3.17945 0
-193.526 -3.17876 0
-191.914 -3.17931 0
-190.301 -3.17877 0
-188.687 -3.18131 0
-187.074 -3.17942 0
-185.461 -3.17879 0
-183.847 -3.17806 0
-182.234 -3.18059 0
-180.62 -3.17967 0
-179.008 -3.17956 0
-177.395 -3.17909 0
-175.783 -3.17999 0
-174.17 -3.18087 0
-172.557 -3.18222 0
-170.944 -3.18206 0
-169.332 -3.17988 0
-167.719 -3.17828 0
-166.107 -3.18043 0
-164.495 -3.18004 0
-162.882 -3.17865 0
-161.268 -3.17872 0
-159.655 -3.17751 0
-158.043 -3.17837 0
-156.43 -3.17881 0
-154.817 -3.18036 0
-153.206 -3.17882 0
-151.593 -3.17883 0
-149.98 -3.18076 0
-148.368 -3.18062 0
-146.754 -3.18138 0
-145.142 -3.18044 0
-143.529 -3.17988 0
-141.918 -3.17999 0
-140.303 -3.17854 0
-138.689 -3.17968 0
-137.077 -3.17821 0
-135.463 -3.17902 0
-133.852 -3.17647 0
-132.238 -3.17662 0
-130.626 -3.17747 0
-129.014 -3.17815 0
-127.401 -3.17974 0
-125.788 -3.18187 0
-124.175 -3.18041 0
-122.562 -3.17961 0
-120.949 -3.17992 0
-119.336 -3.17969 0
-117.724 -3.18198 0
-116.111 -3.17994 0
-114.498 -3.18069 0
-112.886 -3.1798 0
-111.274 -3.18105 0
-109.661 -3.17924 0
-108.048 -3.17851 0
-106.435 -3.1795 0
-104.822 -3.1791 0
-103.209 -3.17954 0
-101.595 -3.18021 0
-99.9837 -3.18117 0
-98.3701 -3.18094 0
-96.7584 -3.18054 0
-95.1446 -3.18097 0
-93.5333 -3.18005 0
-91.9205 -3.18038 0
-90.3072 -3.18067 0
-88.694 -3.18116 0
-87.0812 -3.18117 0
-85.4685 -3.18196 0
-83.8552 -3.1811 0
-82.2424 -3.18019 0
-80.6296 -3.18181 0
-79.0172 -3.18132 0
-77.4042 -3.1812 0
-75.7922 -3.18184 0
-74.1801 -3.18068 0
-72.5681 -3.17998 0
-70.9567 -3.18125 0
-69.3436 -3.18093 0
-67.7315 -3.18029 0
-66.1179 -3.18127 0
-64.5038 -3.18116 0
-62.8922 -3.18113 0
-61.2793 -3.18098 0
-59.6663 -3.18087 0
-58.054 -3.18108 0
-56.4415 -3.18122 0
-54.8283 -3.1809 0
-53.2148 -3.18199 0
-51.6027 -3.18176 0
-49.9897 -3.18167 0
-48.3779 -3.18106 0
-46.7661 -3.1817 0
-45.1537 -3.17958 0
-43.5417 -3.17897 0
-41.9275 -3.17964 0
-40.3159 -3.17967 0
-38.703 -3.17957 0
-37.0904 -3.1796 0
-35.4766 -3.17993 0
-33.8625 -3.17825 0
-32.2504 -3.17838 0
-30.6371 -3.17934 0
-29.0252 -3.17977 0
-27.4116 -3.17966 0
-25.7997 -3.17917 0
-24.1874 -3.17865 0
-22.5754 -3.17885 0
-20.9639 -3.17965 0
-19.3505 -3.17993 0
-17.7394 -3.17762 0
-16.1258 -3.17886 0
-14.5125 -3.17797 0
-12.8987 -3.17531 0
-11.2874 -3.17668 0
-9.6758 -3.1777 0
-8.06277 -3.17898 0
-6.44877 -3.17965 0
-4.83636 -3.17922 0
-3.22343 -3.17892 0
-1.61269 -3.17962 0
0 -3.17946 0
-1097.01 53.0674 0
-1096.66 46.5217 0
-1096.46 40.4368 0
-1096.21 34.6604 0
-1095.96 29.1695 0
-1095.71 23.9582 0
-1095.43 19.0393 0
-1095.09 14.4213 0
-1094.66 10.1446 0
-1094.17 6.24927 0
-1093.65 2.74514 0
-1093.11 -0.372735 0
-1092.55 -3.11746 0
-1091.96 -5.50816 0
-1091.35 -7.56799 0
-1090.72 -9.32418 0
-1090.05 -10.8054 0
-1089.36 -12.0402 0
-1088.64 -13.0547 0
-1087.88 -13.8743 0
-1087.09 -14.521 0
-1086.26 -15.0154 0
-1085.4 -15.375 0
-1084.5 -15.616 0
-1083.57 -15.7516 0
-1082.61 -15.7949 0
-1081.62 -15.7558 0
-1080.59 -15.6441 0
-1079.54 -15.4678 0
-1078.45 -15.2341 0
-1077.34 -14.9493 0
-1076.21 -14.6193 0
-1075.05 -14.2489 0
-1073.86 -13.8429 0
-1072.64 -13.4056 0
-1071.41 -12.9409 0
-1070.15 -12.4522 0
-1068.87 -11.9434 0
-1067.56 -11.4169 0
-1066.23 -10.8766 0
-1064.88 -10.3252 0
-1063.51 -9.76549 0
-1062.12 -9.20022 0
-1060.71 -8.6317 0
-1059.29 -8.06263 0
-1057.84 -7.49485 0
-1056.38 -6.93103 0
-1054.9 -6.37289 0
-1053.4 -5.82228 0
-1051.89 -5.28078 0
-1050.36 -4.74977 0
-1048.82 -4.2312 0
-1047.26 -3.72596 0
-1045.7 -3.23541 0
-1044.12 -2.76083 0
-1042.53 -2.30293 0
-1040.93 -1.86223 0
-1039.31 -1.44011 0
-1037.69 -1.03658 0
-1036.07 -0.65251 0
-1034.43 -0.28783 0
-1032.79 0.0567717 0
-1031.13 0.381228 0
-1029.48 0.684629 0
-1027.82 0.967962 0
-1026.15 1.23076 0
-1024.48 1.47309 0
-1022.8 1.69524 0
-1021.12 1.89789 0
-1019.44 2.07984 0
-1017.75 2.24197 0
-1016.07 2.38502 0
-1014.38 2.50994 0
-1012.69 2.61634 0
-1011 2.70475 0
-1009.31 2.77548 0
-1007.62 2.82902 0
-1005.93 2.86652 0
-1004.23 2.88863 0
-1002.54 2.89511 0
-1000.86 2.88709 0
-999.169 2.86519 0
-997.482 2.82961 0
-995.798 2.78156 0
-994.115 2.72186 0
-992.435 2.65074 0
-990.756 2.56964 0
-989.08 2.47783 0
-987.407 2.37702 0
-985.736 2.26791 0
-984.067 2.15074 0
-982.401 2.02666 0
-980.738 1.8958 0
-979.078 1.75852 0
-977.421 1.61729 0
-975.766 1.47078 0
-974.115 1.32004 0
-972.466 1.16604 0
-970.82 1.00897 0