<?xml version="1.0"?>
<VTKFile type="StructuredGrid"  version="0.1" byte_order="LittleEndian" compressor="vtkZLibDataCompressor">
  <StructuredGrid WholeExtent="0 700 0 30 0 0">
    <Piece Extent="0 700 0 30 0 0">
      <PointData Vectors="Velocity">
        <DataArray type="Float32" Name="Velocity" NumberOfComponents="3" format="ascii">
-1085.6 54.429 0
-1085.83 48.0672 0
-1086.13 41.8928 0
-1086.46 36.0307 0
-1086.76 30.5163 0
-1086.98 25.261 0
-1087.2 20.2035 0
-1087.48 15.4346 0
-1087.76 11.0424 0
-1088.01 7.0437 0
-1088.23 3.43011 0
-1088.42 0.190122 0
-1088.55 -2.69007 0
-1088.64 -5.2303 0
-1088.65 -7.45337 0
-1088.6 -9.38386 0
-1088.47 -11.0471 0
-1088.26 -12.4675 0
-1087.97 -13.6692 0
-1087.61 -14.6727 0
-1087.17 -15.4992 0
-1086.66 -16.1669 0
-1086.08 -16.6923 0
-1085.44 -17.0903 0
-1084.73 -17.375 0
-1083.98 -17.5581 0
-1083.16 -17.6505 0
-1082.3 -17.6623 0
-1081.4 -17.6014 0
-1080.45 -17.4763 0
-1079.46 -17.2929 0
-1078.43 -17.0574 0
-1077.36 -16.7759 0
-1076.26 -16.4525 0
-1075.13 -16.0927 0
-1073.96 -15.7005 0
-1072.77 -15.2789 0
-1071.54 -14.8326 0
-1070.28 -14.3644 0
-1069 -13.8779 0
-1067.69 -13.3752 0
-1066.35 -12.8602 0
-1064.98 -12.3354 0
-1063.59 -11.8033 0
-1062.18 -11.2666 0
-1060.75 -10.7274 0
-1059.29 -10.1882 0
-1057.81 -9.65072 0
-1056.31 -9.11741 0
-1054.79 -8.58961 0
-1053.25 -8.06919 0
-1051.7 -7.55753 0
-1050.13 -7.0568 0
-1048.54 -6.56724 0
-1046.94 -6.09165 0
-1045.32 -5.62931 0
-1043.7 -5.18224 0
-1042.06 -4.75095 0
-1040.41 -4.33542 0
-1038.74 -3.93817 0
-1037.07 -3.55847 0
-1035.39 -3.1969 0
-1033.71 -2.85443 0
-1032.01 -2.53081 0
-1030.31 -2.22582 0
-1028.61 -1.94102 0
-1026.9 -1.6755 0
-1025.18 -1.42925 0
-1023.46 -1.20278 0
-1021.74 -0.99559 0
-1020.01 -0.807585 0
-1018.29 -0.638255 0
-1016.56 -0.487031 0
-1014.83 -0.354583 0
-1013.1 -0.239555 0
-1011.37 -0.143521 0
-1009.64 -0.0635234 0
-1007.91 0.000271319 0
-1006.18 0.046675 0
-1004.46 0.0787415 0
-1002.73 0.0949577 0
-1001.01 0.0964959 0
-999.292 0.0840461 0
-997.574 0.0582666 0
-995.859 0.0207278 0
-994.148 -0.0305557 0
-992.439 -0.0928837 0
-990.735 -0.165676 0
-989.033 -0.24904 0
-987.335 -0.342396 0
-985.641 -0.444394 0
-983.952 -0.5553 0
-982.266 -0.672408 0
-980.583 -0.798262 0
-978.906 -0.929802 0
-977.232 -1.06709 0
-975.562 -1.20973 0
-973.896 -1.35672 0
-972.235 -1.50873 0
-970.576 -1.66368 0
-968.922 -1.82112 0
-967.272 -1.98155 0
-965.627 -2.14415 0
-963.985 -2.30743 0
-962.346 -2.47197 0
-960.711 -2.63776 0
-959.08 -2.80263 0
-957.451 -2.96705 0
-955.826 -3.13017 0
-954.206 -3.29226 0
-952.587 -3.45232 0
-950.971 -3.61121 0
-949.359 -3.7672 0
-947.749 -3.92037 0
-946.141 -4.07069 0
-944.536 -4.2175 0
-942.934 -4.36025 0
-941.334 -4.50042 0
-939.736 -4.63525 0
-938.139 -4.76651 0
-936.543 -4.89309 0
-934.951 -5.01529 0
-933.36 -5.13229 0
-931.77 -5.24464 0
-930.181 -5.35214 0
-928.593 -5.45477 0
-927.006 -5.55098 0
-925.421 -5.64377 0
-923.836 -5.73146 0
-922.251 -5.81374 0
-920.667 -5.88987 0
-919.084 -5.96062 0
-917.502 -6.02596 0
-915.919 -6.08704 0
-914.336 -6.14249 0
-912.752 -6.19224 0
-911.169 -6.23773 0
-909.586 -6.27809 0
-908.003 -6.31388 0
-906.419 -6.34375 0
-904.836 -6.36944 0
-903.251 -6.39154 0
-901.666 -6.40857 0
-900.082 -6.42108 0
-898.496 -6.42933 0
-896.91 -6.43302 0
-895.322 -6.434 0
-893.734 -6.42968 0
-892.145 -6.42179 0
-890.554 -6.41113 0
-888.963 -6.39679 0
-887.372 -6.37867 0
-885.779 -6.35744 0
-884.185 -6.33333 0
-882.59 -6.30688 0
-880.995 -6.27884 0
-879.397 -6.24711 0
-877.8 -6.21367 0
-876.201 -6.17805 0
-874.602 -6.1407 0
-873.001 -6.10063 0
-871.4 -6.05947 0
-869.796 -6.01608 0
-868.192 -5.97233 0
-866.586 -5.92744 0
-864.981 -5.88034 0
-863.374 -5.83309 0
-861.765 -5.78544 0
-860.156 -5.73648 0
-858.546 -5.68675 0
-856.936 -5.63662 0
-855.324 -5.58499 0
-853.711 -5.53513 0
-852.097 -5.48651 0
-850.482 -5.43645 0
-848.867 -5.38632 0
-847.251 -5.33649 0
-845.634 -5.28649 0
-844.016 -5.23746 0
-842.397 -5.18935 0
-840.779 -5.14085 0
-839.158 -5.09367 0
-837.538 -5.04798 0
-835.918 -5.00213 0
-834.296 -4.95932 0
-832.674 -4.91573 0
-831.052 -4.87477 0
-829.428 -4.83288 0
-827.805 -4.79327 0
-826.18 -4.75476 0
-824.556 -4.71805 0
-822.931 -4.68251 0
-821.306 -4.64768 0
-819.68 -4.61463 0
-818.055 -4.58348 0
-816.428 -4.55252 0
-814.801 -4.52383 0
-813.175 -4.4972 0
-811.549 -4.47051 0
-809.922 -4.44697 0
-808.296 -4.42449 0
-806.667 -4.40198 0
-805.04 -4.38256 0
-803.413 -4.36393 0
-801.786 -4.34802 0
-800.159 -4.33204 0
-798.531 -4.31749 0
-796.904 -4.30546 0
-795.277 -4.29415 0
-793.651 -4.28344 0
-792.023 -4.27614 0
-790.397 -4.26845 0
-788.769 -4.26341 0
-787.143 -4.25986 0
-785.518 -4.25675 0
-783.89 -4.25496 0
-782.264 -4.25513 0
-780.638 -4.25513 0
-779.013 -4.25696 0
-777.389 -4.26063 0
-775.764 -4.26389 0
-774.14 -4.27 0
-772.514 -4.27466 0
-770.89 -4.28194 0
-769.266 -4.28914 0
-767.644 -4.29835 0
-766.019 -4.30747 0
-764.396 -4.31753 0
-762.772 -4.32835 0
-761.149 -4.34029 0
-759.527 -4.35293 0
-757.906 -4.36527 0
-756.285 -4.37828 0
-754.664 -4.39187 0
-753.043 -4.40509 0
-751.422 -4.41989 0
-749.8 -4.43416 0
-748.18 -4.45042 0
-746.56 -4.46702 0
-744.941 -4.48338 0
-743.322 -4.49919 0
-741.704 -4.5156 0
-740.085 -4.5327 0
-738.465 -4.54999 0
-736.849 -4.56657 0
-735.229 -4.58328 0
-733.612 -4.60057 0
-731.993 -4.61746 0
-730.377 -4.63327 0
-728.761 -4.65088 0
-727.144 -4.66594 0
-725.527 -4.6832 0
-723.911 -4.70041 0
-722.295 -4.71686 0
-720.679 -4.73174 0
-719.061 -4.74732 0
-717.447 -4.76204 0
-715.832 -4.77847 0
-714.217 -4.79338 0
-712.602 -4.80809 0
-710.987 -4.82299 0
-709.373 -4.83569 0
-707.759 -4.85085 0
-706.144 -4.86276 0
-704.529 -4.8751 0
-702.916 -4.88563 0
-701.302 -4.89793 0
-699.687 -4.90925 0
-698.073 -4.92054 0
-696.458 -4.93173 0
-694.846 -4.94019 0
-693.232 -4.95201 0
-691.618 -4.96078 0
-690.005 -4.97013 0
-688.393 -4.97858 0
-686.779 -4.98672 0
-685.166 -4.99229 0
-683.551 -4.99959 0
-681.939 -5.00547 0
-680.324 -5.01128 0
-678.71 -5.01867 0
-677.095 -5.02319 0
-675.482 -5.02695 0
-673.868 -5.03161 0
-672.257 -5.03534 0
-670.644 -5.04012 0
-669.029 -5.0424 0
-667.416 -5.04616 0
-665.802 -5.0472 0
-664.189 -5.05002 0
-662.575 -5.04996 0
-660.961 -5.05082 0
-659.347 -5.05202 0
-657.733 -5.05171 0
-656.119 -5.05099 0
-654.507 -5.04925 0
-652.893 -5.04909 0
-651.279 -5.04796 0
-649.663 -5.0474 0
-648.049 -5.04492 0
-646.436 -5.04289 0
-644.823 -5.04225 0
-643.209 -5.03815 0
-641.594 -5.03551 0
-639.98 -5.03243 0
-638.365 -5.02909 0
-636.749 -5.02399 0
-635.135 -5.02069 0
-633.52 -5.01651 0
-631.904 -5.01214 0
-630.289 -5.00631 0
-628.675 -5.00344 0
-627.06 -4.99818 0
-625.443 -4.99366 0
-623.828 -4.98883 0
-622.214 -4.98225 0
-620.599 -4.97828 0
-618.983 -4.97309 0
-617.368 -4.96592 0
-615.751 -4.96164 0
-614.135 -4.95649 0
-612.517 -4.95021 0
-610.902 -4.94427 0
-609.285 -4.93721 0
-607.67 -4.93202 0
-606.053 -4.92698 0
-604.438 -4.92114 0
-602.822 -4.91549 0
-601.204 -4.90831 0
-599.587 -4.90265 0
-597.971 -4.89818 0
-596.354 -4.89229 0
-594.737 -4.88659 0
-593.12 -4.88071 0
-591.505 -4.87486 0
-589.887 -4.86968 0
-588.268 -4.86393 0
-586.651 -4.85935 0
-585.035 -4.85327 0
-583.417 -4.84976 0
-581.8 -4.84332 0
-580.183 -4.83957 0
-578.567 -4.83401 0
-576.95 -4.82931 0
-575.332 -4.82477 0
-573.713 -4.81867 0
-572.095 -4.81539 0
-570.478 -4.81163 0
-568.86 -4.80671 0
-567.242 -4.80631 0
-565.625 -4.80244 0
-564.007 -4.79669 0
-562.39 -4.79262 0
-560.773 -4.78951 0
-559.154 -4.78695 0
-557.536 -4.78449 0
-555.917 -4.78165 0
-554.3 -4.77954 0
-552.683 -4.77697 0
-551.066 -4.77372 0
-549.448 -4.77142 0
-547.831 -4.77005 0
-546.211 -4.76912 0
-544.594 -4.76774 0
-542.976 -4.76543 0
-541.36 -4.76331 0
-539.743 -4.76206 0
-538.125 -4.76059 0
-536.508 -4.7609 0
-534.89 -4.75803 0
-533.27 -4.75802 0
-531.654 -4.75715 0
-530.038 -4.75449 0
-528.42 -4.75496 0
-526.802 -4.75396 0
-525.184 -4.75444 0
-523.565 -4.75485 0
-521.949 -4.75234 0
-520.331 -4.75322 0
-518.714 -4.75323 0
-517.096 -4.75274 0
-515.479 -4.75281 0
-513.863 -4.75305 0
-512.245 -4.75398 0
-510.629 -4.75237 0
-509.012 -4.75442 0
-507.395 -4.75422 0
-505.779 -4.7567 0
-504.162 -4.75954 0
-502.543 -4.76024 0
-500.925 -4.75972 0
-499.31 -4.75989 0
-497.693 -4.76035 0
-496.077 -4.76266 0
-494.46 -4.76272 0
-492.843 -4.76454 0
-491.226 -4.76594 0
-489.609 -4.76695 0
-487.994 -4.76859 0
-486.378 -4.76932 0
-484.761 -4.77191 0
-483.143 -4.77363 0
-481.525 -4.77579 0
-479.908 -4.77628 0
-478.289 -4.7757 0
-476.675 -4.77991 0
-475.058 -4.78145 0
-473.443 -4.78274 0
-471.827 -4.78372 0
-470.211 -4.78579 0
-468.594 -4.78638 0
-466.977 -4.78668 0
-465.36 -4.78683 0
-463.744 -4.78834 0
-462.126 -4.79037 0
-460.511 -4.79347 0
-458.894 -4.79421 0
-457.278 -4.79393 0
-455.662 -4.79591 0
-454.047 -4.79853 0
-452.431 -4.80127 0
-450.814 -4.80074 0
-449.197 -4.80217 0
-447.582 -4.80237 0
-445.965 -4.80677 0
-444.349 -4.80732 0
-442.732 -4.80841 0
-441.117 -4.80897 0
-439.498 -4.80926 0
-437.883 -4.80916 0
-436.268 -4.81031 0
-434.653 -4.80925 0
-433.037 -4.8137 0
-431.419 -4.81432 0
-429.803 -4.8154 0
-428.189 -4.8152 0
-426.574 -4.81624 0
-424.956 -4.81719 0
-423.341 -4.81762 0
-421.722 -4.81854 0
-420.107 -4.8206 0
-418.489 -4.82141 0
-416.876 -4.82112 0
-415.259 -4.8231 0
-413.642 -4.82375 0
-412.028 -4.82464 0
-410.412 -4.82456 0
-408.799 -4.82734 0
-407.183 -4.82427 0
-405.566 -4.82408 0
-403.947 -4.82252 0
-402.331 -4.82487 0
-400.716 -4.82507 0
-399.098 -4.82234 0
-397.483 -4.82591 0
-395.867 -4.8254 0
-394.251 -4.82529 0
-392.635 -4.82196 0
-391.019 -4.8224 0
-389.404 -4.8234 0
-387.787 -4.8221 0
-386.17 -4.82058 0
-384.554 -4.82358 0
-382.939 -4.82269 0
-381.324 -4.823 0
-379.708 -4.82161 0
-378.09 -4.82115 0
-376.473 -4.82 0
-374.858 -4.81985 0
-373.242 -4.81896 0
-371.625 -4.8198 0
-370.01 -4.81832 0
-368.394 -4.81529 0
-366.776 -4.81405 0
-365.159 -4.81573 0
-363.548 -4.81348 0
-361.931 -4.8113 0
-360.314 -4.81218 0
-358.699 -4.81173 0
-357.082 -4.81104 0
-355.466 -4.81084 0
-353.85 -4.81004 0
-352.234 -4.80906 0
-350.616 -4.80819 0
-348.999 -4.80812 0
-347.382 -4.80621 0
-345.766 -4.80625 0
-344.152 -4.80567 0
-342.537 -4.80598 0
-340.921 -4.80508 0
-339.303 -4.8036 0
-337.687 -4.80243 0
-336.071 -4.80203 0
-334.456 -4.80313 0
-332.838 -4.79884 0
-331.223 -4.79926 0
-329.607 -4.79763 0
-327.989 -4.79919 0
-326.372 -4.79778 0
-324.757 -4.79793 0
-323.141 -4.7976 0
-321.525 -4.79795 0
-319.909 -4.79506 0
-318.295 -4.79556 0
-316.678 -4.79511 0
-315.061 -4.79144 0
-313.445 -4.79311 0
-311.829 -4.79493 0
-310.214 -4.79415 0
-308.597 -4.79517 0
-306.98 -4.79183 0
-305.364 -4.78846 0
-303.748 -4.78888 0
-302.131 -4.78904 0
-300.517 -4.7892 0
-298.901 -4.78998 0
-297.285 -4.78941 0
-295.668 -4.78791 0
-294.053 -4.78997 0
-292.437 -4.78843 0
-290.821 -4.78853 0
-289.204 -4.78757 0
-287.587 -4.78712 0
-285.971 -4.78709 0
-284.353 -4.7883 0
-282.74 -4.78836 0
-281.123 -4.78826 0
-279.506 -4.78655 0
-277.889 -4.78257 0
-276.273 -4.7814 0
-274.659 -4.78209 0
-273.043 -4.78316 0
-271.427 -4.78208 0
-269.811 -4.78038 0
-268.197 -4.78258 0
-266.581 -4.78094 0
-264.962 -4.7797 0
-263.346 -4.77992 0
-261.73 -4.78005 0
-260.114 -4.77733 0
-258.499 -4.77943 0
-256.883 -4.78167 0
-255.264 -4.78047 0
-253.65 -4.77938 0
-252.038 -4.78229 0
-250.42 -4.77941 0
-248.803 -4.78049 0
-247.188 -4.78298 0
-245.57 -4.77972 0
-243.954 -4.77949 0
-242.336 -4.7796 0
-240.72 -4.77956 0
-239.108 -4.77992 0
-237.491 -4.78114 0
-235.877 -4.78301 0
-234.259 -4.7808 0
-232.641 -4.78218 0
-231.027 -4.78349 0
-229.412 -4.78098 0
-227.795 -4.78348 0
-226.179 -4.78127 0
-224.563 -4.78135 0
-222.949 -4.78154 0
-221.33 -4.7788 0
-219.715 -4.78131 0
-218.098 -4.78345 0
-216.484 -4.78416 0
-214.868 -4.78296 0
-213.254 -4.77961 0
-211.638 -4.78101 0
-210.022 -4.77962 0
-208.403 -4.78163 0
-206.788 -4.78468 0
-205.173 -4.78159 0
-203.556 -4.78383 0
-201.94 -4.78426 0
-200.325 -4.78238 0
-198.71 -4.78395 0
-197.094 -4.78257 0
-195.478 -4.78263 0
-193.864 -4.78347 0
-192.246 -4.78495 0
-190.631 -4.78557 0
-189.015 -4.78707 0
-187.4 -4.78374 0
-185.784 -4.78549 0
-184.168 -4.78157 0
-182.552 -4.78367 0
-180.938 -4.7828 0
-179.323 -4.78446 0
-177.707 -4.78266 0
-176.09 -4.78275 0
-174.474 -4.78302 0
-172.859 -4.78339 0
-171.241 -4.78334 0
-169.626 -4.7814 0
-168.011 -4.78202 0
-166.395 -4.78151 0
-164.781 -4.78257 0
-163.167 -4.78295 0
-161.551 -4.78394 0
-159.935 -4.78407 0
-158.32 -4.78105 0
-156.704 -4.78357 0
-155.09 -4.78122 0
-153.471 -4.78307 0
-151.854 -4.78459 0
-150.239 -4.78422 0
-148.626 -4.7837 0
-147.011 -4.78525 0
-145.394 -4.78452 0
-143.779 -4.78414 0
-142.162 -4.78534 0
-140.546 -4.7835 0
-138.929 -4.78506 0
-137.313 -4.78444 0
-135.698 -4.78534 0
-134.083 -4.78476 0
-132.467 -4.78391 0
-130.852 -4.78458 0
-129.237 -4.78472 0
-127.621 -4.78455 0
-126.004 -4.78591 0
-124.39 -4.78722 0
-122.773 -4.78569 0
-121.158 -4.78513 0
-119.542 -4.78492 0
-117.928 -4.78693 0
-116.311 -4.7851 0
-114.695 -4.78476 0
-113.08 -4.78525 0
-111.463 -4.78559 0
-109.846 -4.78396 0
-108.232 -4.78574 0
-106.617 -4.78685 0
-105 -4.78833 0
-103.384 -4.78757 0
-101.77 -4.78771 0
-100.153 -4.78679 0
-98.5401 -4.78799 0
-96.9239 -4.787 0
-95.309 -4.7861 0
-93.6927 -4.78625 0
-92.0794 -4.78696 0
-90.4617 -4.78909 0
-88.8455 -4.78857 0
-87.2313 -4.78807 0
-85.618 -4.7879 0
-84.0031 -4.78815 0
-82.3872 -4.78806 0
-80.7712 -4.78807 0
-79.1541 -4.78802 0
-77.5377 -4.79075 0
-75.9251 -4.78853 0
-74.3082 -4.78926 0
-72.6921 -4.78896 0
-71.0756 -4.78831 0
-69.4598 -4.78735 0
-67.8445 -4.7857 0
-66.229 -4.78532 0
-64.6137 -4.78527 0
-62.9984 -4.78535 0
-61.3809 -4.78692 0
-59.7657 -4.78616 0
-58.1506 -4.78436 0
-56.5357 -4.78457 0
-54.9212 -4.78507 0
-53.3047 -4.78693 0
-51.6903 -4.78766 0
-50.0759 -4.78821 0
-48.4606 -4.78928 0
-46.8471 -4.78799 0
-45.2319 -4.78571 0
-43.6156 -4.78503 0
-42.0011 -4.78443 0
-40.3845 -4.78247 0
-38.7689 -4.78346 0
-37.1553 -4.78433 0
-35.5391 -4.78391 0
-33.923 -4.78424 0
-32.3068 -4.78201 0
-30.6923 -4.78477 0
-29.0768 -4.78474 0
-27.4635 -4.78238 0
-25.8465 -4.78165 0
-24.2316 -4.78242 0
-22.6157 -4.7841 0
-21.0019 -4.78359 0
-19.3866 -4.78456 0
-17.7715 -4.78194 0
-16.154 -4.783 0
-14.5386 -4.7838 0
-12.9222 -4.78165 0
-11.3086 -4.78244 0
-9.69451 -4.78005 0
-8.07801 -4.77989 0
-6.46056 -4.77974 0
-4.84698 -4.7783 0
-3.23009 -4.77916 0
-1.61434 -4.77814 0
0 -4.77995 0
-1091.97 54.7016 0
-1092.04 48.2792 0
-1092.09 42.0766 0
-1092.09 36.1959 0
-1092.09 30.6659 0
-1092.15 25.4017 0
-1092.17 20.3378 0
-1092.11 15.5616 0
-1092 11.1622 0
-1091.87 7.16029 0
-1091.72 3.55011 0
-1091.53 0.322499 0
-1091.32 -2.53611 0
-1091.07 -5.04442 0
-1090.77 -7.22628 0
-1090.43 -9.10777 0
-1090.04 -10.7161 0
-1089.6 -12.0786 0
-1089.1 -13.2201 0
-1088.54 -14.1638 0
-1087.93 -14.9314 0
-1087.27 -15.5416 0
-1086.55 -16.0118 0
-1085.79 -16.3578 0
-1084.98 -16.5928 0
-1084.12 -16.7287 0
-1083.22 -16.7773 0
-1082.28 -16.7471 0
-1081.31 -16.6471 0
-1080.3 -16.4841 0
-1079.25 -16.2649 0
-1078.18 -15.9956 0
-1077.07 -15.6811 0
-1075.93 -15.3267 0
-1074.76 -14.9365 0
-1073.56 -14.5147 0
-1072.34 -14.065 0
-1071.09 -13.591 0
-1069.81 -13.0956 0
-1068.51 -12.5829 0
-1067.19 -12.0554 0
-1065.84 -11.5158 0
-1064.47 -10.9672 0
-1063.07 -10.4122 0
-1061.65 -9.8537 0
-1060.22 -9.29347 0
-1058.76 -8.7337 0
-1057.28 -8.17683 0
-1055.79 -7.62483 0
-1054.28 -7.07943 0
-1052.75 -6.54245 0
-1051.2 -6.0151 0
-1049.64 -5.49906 0
-1048.07 -4.99593 0
-1046.48 -4.50648 0
-1044.88 -4.0319 0
-1043.27 -3.57294 0
-1041.64 -3.13076 0
-1040.01 -2.70598 0
-1038.37 -2.29875 0
-1036.71 -1.9108 0
-1035.05 -1.54183 0
-1033.38 -1.1919 0
-1031.71 -0.862129 0
-1030.03 -0.551877 0
-1028.34 -0.261869 0
-1026.65 0.00809256 0
-1024.95 0.258036 0
-1023.25 0.487988 0
-1021.55 0.697671 0
-1019.84 0.888473 0
-1018.13 1.05929 0
-1016.42 1.21144 0
-1014.71 1.3446 0
-1013 1.45981 0
-1011.29 1.55634 0
-1009.57 1.63547 0
-1007.86 1.69829 0
-1006.15 1.74403 0
-1004.44 1.77405 0
-1002.73 1.78848 0
-1001.02 1.78844 0
-999.313 1.77379 0
-997.608 1.74573 0
-995.906 1.70497 0
-994.205 1.65107 0
-992.508 1.58579 0
-990.813 1.50987 0
-989.121 1.42312 0
-987.433 1.32674 0
-985.748 1.22101 0
-984.066 1.1068 0
-982.387 0.985579 0
-980.712 0.856445 0
-979.04 0.721254 0
-977.371 0.57981 0
-975.705 0.433924 0
-974.044 0.282772 0
-972.386 0.127399 0
-970.731 -0.0314122 0
-969.08 -0.192542 0
-967.432 -0.3568 0
-965.787 -0.522597 0
-964.146 -0.689508 0
-962.508 -0.85721 0
-960.874 -1.02588 0
-959.241 -1.19401 0
-957.613 -1.36151 0
-955.987 -1.52787 0
-954.364 -1.69281 0
-952.744 -1.85553 0
-951.126 -2.01728 0
-949.511 -2.17571 0
-947.898 -2.33126 0
-946.288 -2.48374 0
-944.679 -2.63274 0
-943.072 -2.77819 0
-941.468 -2.92019 0
-939.866 -3.0567 0
-938.265 -3.18955 0
-936.666 -3.31771 0
-935.069 -3.44142 0
-933.473 -3.56027 0
-931.878 -3.6734 0
-930.283 -3.78186 0
-928.691 -3.88516 0
-927.099 -3.98296 0
-925.509 -4.0762 0
-923.918 -4.16423 0
-922.329 -4.24683 0
-920.74 -4.3237 0
-919.151 -4.39511 0
-917.563 -4.46101 0
-915.975 -4.52145 0
-914.387 -4.57739 0
-912.799 -4.62695 0
-911.211 -4.67237 0
-909.623 -4.71264 0
-908.035 -4.74822 0
-906.447 -4.77794 0
-904.859 -4.80399 0
-903.27 -4.82492 0
-901.68 -4.8417 0
-900.091 -4.85352 0
-898.501 -4.86156 0
-896.911 -4.86486 0
-895.32 -4.86395 0
-893.728 -4.85954 0
-892.135 -4.85065 0
-890.542 -4.8391 0
-888.947 -4.82411 0
-887.352 -4.80576 0
-885.757 -4.78322 0
-884.16 -4.75831 0
-882.563 -4.73094 0
-880.964 -4.70129 0
-879.366 -4.66954 0
-877.765 -4.6349 0
-876.165 -4.598 0
-874.563 -4.55954 0
-872.96 -4.51928 0
-871.356 -4.47679 0
-869.753 -4.43203 0
-868.148 -4.38744 0
-866.542 -4.3412 0
-864.934 -4.29388 0
-863.326 -4.24514 0
-861.717 -4.19632 0
-860.107 -4.14697 0
-858.497 -4.09645 0
-856.885 -4.04529 0
-855.274 -3.99367 0
-853.661 -3.94287 0
-852.047 -3.8919 0
-850.433 -3.84132 0
-848.818 -3.79106 0
-847.202 -3.74039 0
-845.586 -3.6896 0
-843.968 -3.64026 0
-842.351 -3.59131 0
-840.732 -3.54182 0
-839.113 -3.49458 0
-837.493 -3.44843 0
-835.873 -3.4027 0
-834.253 -3.35851 0
-832.632 -3.31529 0
-831.01 -3.27285 0
-829.389 -3.23108 0
-827.766 -3.19067 0
-826.143 -3.15139 0
-824.52 -3.11439 0
-822.896 -3.0785 0
-821.272 -3.04356 0
-819.648 -3.01027 0
-818.024 -2.97848 0
-816.399 -2.94774 0
-814.774 -2.91914 0
-813.149 -2.89167 0
-811.524 -2.86535 0
-809.898 -2.84145 0
-808.273 -2.81808 0
-806.648 -2.7959 0
-805.022 -2.77682 0
-803.395 -2.75824 0
-801.77 -2.74145 0
-800.144 -2.72601 0
-798.518 -2.71176 0
-796.892 -2.69937 0
-795.267 -2.68825 0
-793.642 -2.67764 0
-792.015 -2.67032 0
-790.39 -2.66292 0
-788.765 -2.65833 0
-787.139 -2.65468 0
-785.514 -2.65205 0
-783.89 -2.65017 0
-782.265 -2.64941 0
-780.64 -2.65122 0
-779.016 -2.653 0
-777.392 -2.65674 0
-775.769 -2.66051 0
-774.144 -2.66594 0
-772.521 -2.67114 0
-770.897 -2.67906 0
-769.274 -2.68709 0
-767.652 -2.69551 0
-766.028 -2.70526 0
-764.406 -2.71514 0
-762.784 -2.72623 0
-761.162 -2.73877 0
-759.54 -2.75164 0
-757.919 -2.76448 0
-756.298 -2.77847 0
-754.678 -2.79111 0
-753.056 -2.80498 0
-751.436 -2.82 0
-749.816 -2.83444 0
-748.196 -2.85129 0
-746.577 -2.86834 0
-744.958 -2.88518 0
-743.338 -2.9011 0
-741.72 -2.91742 0
-740.102 -2.93452 0
-738.483 -2.9528 0
-736.865 -2.96916 0
-735.247 -2.98603 0
-733.629 -3.00357 0
-732.011 -3.02138 0
-730.394 -3.03789 0
-728.777 -3.05452 0
-727.161 -3.07023 0
-725.544 -3.08678 0
-723.928 -3.10446 0
-722.311 -3.11987 0
-720.693 -3.1365 0
-719.077 -3.15137 0
-717.461 -3.16799 0
-715.847 -3.18306 0
-714.231 -3.19898 0
-712.616 -3.21361 0
-711.002 -3.22743 0
-709.387 -3.24164 0
-707.771 -3.25536 0
-706.156 -3.26825 0
-704.541 -3.28162 0
-702.927 -3.29348 0
-701.313 -3.30506 0
-699.698 -3.31544 0
-698.084 -3.3272 0
-696.469 -3.33752 0
-694.855 -3.34798 0
-693.241 -3.35764 0
-691.627 -3.36752 0
-690.013 -3.3768 0
-688.4 -3.38575 0
-686.786 -3.39282 0
-685.172 -3.39931 0
-683.558 -3.40656 0
-681.945 -3.41225 0
-680.331 -3.41841 0
-678.715 -3.42344 0
-677.101 -3.4298 0
-675.486 -3.43371 0
-673.873 -3.43791 0
-672.259 -3.4428 0
-670.646 -3.44569 0
-669.033 -3.44836 0
-667.419 -3.45185 0
-665.804 -3.45386 0
-664.19 -3.45671 0
-662.575 -3.45658 0
-660.962 -3.45772 0
-659.348 -3.45855 0
-657.733 -3.45833 0
-656.119 -3.45793 0
-654.505 -3.45679 0
-652.891 -3.45612 0
-651.278 -3.45417 0
-649.662 -3.45164 0
-648.048 -3.45166 0
-646.435 -3.45069 0
-644.82 -3.44809 0
-643.205 -3.44417 0
-641.59 -3.44094 0
-639.976 -3.43767 0
-638.36 -3.43422 0
-636.746 -3.42991 0
-635.131 -3.42544 0
-633.516 -3.42182 0
-631.9 -3.41646 0
-630.284 -3.41265 0
-628.669 -3.40885 0
-627.055 -3.40372 0
-625.44 -3.39834 0
-623.824 -3.39384 0
-622.208 -3.38732 0
-620.592 -3.38301 0
-618.977 -3.37774 0
-617.362 -3.37108 0
-615.745 -3.36571 0
-614.129 -3.35962 0
-612.513 -3.35405 0
-610.897 -3.3494 0
-609.28 -3.34239 0
-607.664 -3.33731 0
-606.048 -3.33078 0
-604.431 -3.32507 0
-602.815 -3.31868 0
-601.198 -3.31317 0
-599.582 -3.30781 0
-597.966 -3.30176 0
-596.349 -3.29602 0
-594.731 -3.28923 0
-593.114 -3.28403 0
-591.499 -3.27929 0
-589.882 -3.27225 0
-588.264 -3.26701 0
-586.647 -3.26224 0
-585.03 -3.25764 0
-583.413 -3.25184 0
-581.795 -3.24734 0
-580.179 -3.24328 0
-578.561 -3.23804 0
-576.944 -3.23151 0
-575.327 -3.22674 0
-573.71 -3.22125 0
-572.092 -3.21797 0
-570.474 -3.21363 0
-568.856 -3.21061 0
-567.239 -3.20961 0
-565.621 -3.20556 0
-564.004 -3.19974 0
-562.386 -3.19591 0
-560.769 -3.19253 0
-559.151 -3.18961 0
-557.533 -3.18712 0
-555.916 -3.1851 0
-554.298 -3.18247 0
-552.68 -3.18029 0
-551.063 -3.17687 0
-549.446 -3.17369 0
-547.828 -3.17308 0
-546.211 -3.17194 0
-544.592 -3.16987 0
-542.974 -3.16829 0
-541.357 -3.16633 0
-539.74 -3.16542 0
-538.123 -3.16367 0
-536.507 -3.16298 0
-534.889 -3.16129 0
-533.272 -3.16085 0
-531.654 -3.16019 0
-530.037 -3.15827 0
-528.419 -3.15701 0
-526.802 -3.15722 0
-525.184 -3.15667 0
-523.567 -3.15611 0
-521.949 -3.15671 0
-520.331 -3.1565 0
-518.714 -3.15617 0
-517.097 -3.15573 0
-515.479 -3.15618 0
-513.862 -3.1574 0
-512.246 -3.15687 0
-510.629 -3.15667 0
-509.012 -3.15693 0
-507.396 -3.15798 0
-505.779 -3.1602 0
-504.161 -3.16221 0
-502.544 -3.16201 0
-500.928 -3.16324 0
-499.31 -3.16438 0
-497.693 -3.16439 0
-496.077 -3.16569 0
-494.461 -3.16645 0
-492.845 -3.16886 0
-491.228 -3.17021 0
-489.61 -3.17073 0
-487.994 -3.17191 0
-486.379 -3.17407 0
-484.761 -3.17529 0
-483.144 -3.17751 0
-481.527 -3.17939 0
-479.909 -3.17929 0
-478.292 -3.18022 0
-476.678 -3.18258 0
-475.061 -3.18558 0
-473.444 -3.18688 0
-471.827 -3.18828 0
-470.211 -3.18936 0
-468.593 -3.18909 0
-466.977 -3.19078 0
-465.361 -3.19125 0
-463.746 -3.19381 0
-462.131 -3.19448 0
-460.513 -3.19621 0
-458.896 -3.19849 0
-457.28 -3.19981 0
-455.664 -3.20149 0
-454.048 -3.20277 0
-452.431 -3.20479 0
-450.816 -3.20463 0
-449.199 -3.20524 0
-447.583 -3.20755 0
-445.968 -3.20984 0
-444.351 -3.21156 0
-442.735 -3.21162 0
-441.118 -3.21204 0
-439.502 -3.21422 0
-437.885 -3.21415 0
-436.268 -3.21475 0
-434.652 -3.21459 0
-433.036 -3.21608 0
-431.419 -3.2187 0
-429.804 -3.21983 0
-428.189 -3.21992 0
-426.573 -3.22099 0
-424.956 -3.22192 0
-423.34 -3.22327 0
-421.724 -3.22354 0
-420.107 -3.22438 0
-418.491 -3.22503 0
-416.875 -3.22759 0
-415.26 -3.22765 0
-413.643 -3.22793 0
-412.029 -3.23001 0
-410.414 -3.22972 0
-408.798 -3.22966 0
-407.181 -3.228 0
-405.564 -3.22724 0
-403.948 -3.22587 0
-402.332 -3.22923 0
-400.716 -3.22954 0
-399.099 -3.22741 0
-397.484 -3.23014 0
-395.868 -3.22928 0
-394.25 -3.22874 0
-392.633 -3.22673 0
-391.02 -3.22749 0
-389.403 -3.22716 0
-387.788 -3.22697 0
-386.172 -3.228 0
-384.555 -3.22829 0
-382.939 -3.22748 0
-381.322 -3.2265 0
-379.706 -3.22475 0
-378.088 -3.22364 0
-376.473 -3.22471 0
-374.857 -3.22426 0
-373.24 -3.22357 0
-371.625 -3.22344 0
-370.009 -3.22258 0
-368.393 -3.2197 0
-366.777 -3.21927 0
-365.161 -3.2192 0
-363.547 -3.21701 0
-361.931 -3.21659 0
-360.314 -3.21649 0
-358.698 -3.21611 0
-357.081 -3.21623 0
-355.465 -3.21492 0
-353.849 -3.21406 0
-352.232 -3.21263 0
-350.613 -3.21256 0
-348.997 -3.21128 0
-347.381 -3.20933 0
-345.766 -3.21275 0
-344.152 -3.2102 0
-342.537 -3.20845 0
-340.92 -3.2088 0
-339.303 -3.20809 0
-337.687 -3.20707 0
-336.07 -3.20555 0
-334.454 -3.20584 0
-332.837 -3.20461 0
-331.221 -3.20249 0
-329.606 -3.20209 0
-327.991 -3.20148 0
-326.375 -3.20221 0
-324.757 -3.20164 0
-323.141 -3.20212 0
-321.526 -3.20191 0
-319.91 -3.20125 0
-318.295 -3.20034 0
-316.678 -3.1993 0
-315.063 -3.19834 0
-313.446 -3.19913 0
-311.829 -3.19888 0
-310.215 -3.19928 0
-308.596 -3.19647 0
-306.979 -3.19626 0
-305.363 -3.19398 0
-303.748 -3.19535 0
-302.132 -3.19502 0
-300.516 -3.19378 0
-298.901 -3.19293 0
-297.283 -3.19367 0
-295.669 -3.19308 0
-294.054 -3.19325 0
-292.436 -3.19202 0
-290.819 -3.19242 0
-289.203 -3.19267 0
-287.586 -3.19153 0
-285.969 -3.19203 0
-284.353 -3.193 0
-282.738 -3.19304 0
-281.121 -3.19123 0
-279.504 -3.18868 0
-277.889 -3.18804 0
-276.274 -3.18698 0
-274.658 -3.18658 0
-273.042 -3.18656 0
-271.427 -3.18708 0
-269.812 -3.18675 0
-268.196 -3.18714 0
-266.579 -3.18479 0
-264.962 -3.18586 0
-263.346 -3.18535 0
-261.73 -3.18337 0
-260.116 -3.1849 0
-258.5 -3.18548 0
-256.882 -3.18536 0
-255.267 -3.18461 0
-253.65 -3.18543 0
-252.036 -3.18434 0
-250.419 -3.18307 0
-248.804 -3.18465 0
-247.185 -3.18526 0
-245.57 -3.18459 0
-243.953 -3.18489 0
-242.339 -3.18543 0
-240.721 -3.18324 0
-239.106 -3.18615 0
-237.492 -3.18683 0
-235.875 -3.18763 0
-234.258 -3.18494 0
-232.643 -3.1843 0
-231.027 -3.18706 0
-229.411 -3.18653 0
-227.795 -3.18653 0
-226.178 -3.18667 0
-224.563 -3.18578 0
-222.948 -3.18572 0
-221.333 -3.18454 0
-219.716 -3.18536 0
-218.099 -3.18752 0
-216.483 -3.18779 0
-214.865 -3.18678 0
-213.252 -3.18685 0
-211.635 -3.18585 0
-210.019 -3.1835 0
-208.404 -3.18629 0
-206.788 -3.18783 0
-205.172 -3.18571 0
-203.556 -3.18813 0
-201.94 -3.18813 0
-200.325 -3.18654 0
-198.71 -3.18898 0
-197.094 -3.18834 0
-195.479 -3.18856 0
-193.864 -3.18718 0
-192.247 -3.18918 0
-190.631 -3.19002 0
-189.015 -3.1907 0
-187.399 -3.18954 0
-185.783 -3.18862 0
-184.168 -3.18707 0
-182.552 -3.18624 0
-180.937 -3.18877 0
-179.32 -3.18892 0
-177.706 -3.18929 0
-176.09 -3.18737 0
-174.476 -3.18707 0
-172.86 -3.18778 0
-171.243 -3.18649 0
-169.627 -3.18642 0
-168.011 -3.18629 0
-166.394 -3.18773 0
-164.78 -3.18779 0
-163.165 -3.18898 0
-161.551 -3.19015 0
-159.934 -3.18803 0
-158.32 -3.18745 0
-156.705 -3.18785 0
-155.087 -3.18605 0
-153.472 -3.18744 0
-151.856 -3.18859 0
-150.239 -3.18914 0
-148.624 -3.18884 0
-147.009 -3.19035 0
-145.394 -3.18995 0
-143.778 -3.18744 0
-142.161 -3.18885 0
-140.545 -3.18845 0
-138.93 -3.18895 0
-137.313 -3.18967 0
-135.697 -3.18883 0
-134.082 -3.18911 0
-132.468 -3.18881 0
-130.853 -3.1895 0
-129.237 -3.18895 0
-127.621 -3.1895 0
-126.006 -3.19139 0
-124.389 -3.19118 0
-122.774 -3.1909 0
-121.159 -3.18906 0
-119.543 -3.19053 0
-117.926 -3.19115 0
-116.311 -3.1904 0
-114.694 -3.19089 0
-113.078 -3.18936 0
-111.464 -3.18927 0
-109.846 -3.18959 0
-108.231 -3.19126 0
-106.616 -3.19212 0
-105.001 -3.19294 0
-103.386 -3.19171 0
-101.769 -3.19233 0
-100.156 -3.19147 0
-98.5396 -3.19258 0
-96.9243 -3.19235 0
-95.3097 -3.19144 0
-93.6947 -3.19193 0
-92.0779 -3.19227 0
-90.4631 -3.19241 0
-88.8473 -3.193 0
-87.2309 -3.19372 0
-85.6174 -3.19313 0
-84.0024 -3.19386 0
-82.3861 -3.19233 0
-80.7711 -3.19317 0
-79.1558 -3.19439 0
-77.5391 -3.19457 0
-75.9232 -3.19315 0
-74.308 -3.1935 0
-72.6923 -3.19394 0
-71.0759 -3.19325 0
-69.4588 -3.1932 0
-67.8435 -3.19187 0
-66.2284 -3.1899 0
-64.6133 -3.19112 0
-62.9987 -3.1902 0
-61.3825 -3.19071 0
-59.766 -3.19083 0
-58.149 -3.19025 0
-56.5345 -3.19006 0
-54.9204 -3.19077 0
-53.3052 -3.19138 0
-51.6902 -3.19356 0
-50.075 -3.19391 0
-48.4608 -3.19493 0
-46.8448 -3.19342 0
-45.2289 -3.19149 0
-43.6131 -3.19112 0
-41.9983 -3.19055 0
-40.3832 -3.18714 0
-38.7694 -3.18905 0
-37.1547 -3.18945 0
-35.5386 -3.1892 0
-33.9229 -3.18895 0
-32.3074 -3.18834 0
-30.6916 -3.1902 0
-29.077 -3.18933 0
-27.4613 -3.18779 0
-25.8453 -3.18711 0
-24.2312 -3.18769 0
-22.6161 -3.1876 0
-21.0003 -3.18808 0
-19.3847 -3.18772 0
-17.7696 -3.18746 0
-16.1543 -3.18893 0
-14.5377 -3.18751 0
-12.9229 -3.18575 0
-11.308 -3.18686 0
-9.69204 -3.18488 0
-8.07829 -3.18475 0
-6.46303 -3.18444 0
-4.84651 -3.18388 0
-3.2313 -3.18418 0
-1.61594 -3.18463 0
0 -3.18549 0
-1098.69 55.3582 0
-1098.33 48.7223 0
-1098.12 42.5417 0
-1097.87 36.6675 0
-1097.61 31.078 0
-1097.35 25.7671 0
-1097.07 20.7474 0
-1096.72 16.0278 0
-1096.29 11.6477 0
-1095.8 7.64719 0
-1095.28 4.03683 0
-1094.74 0.811844 0
-1094.18 -2.03965 0
-1093.59 -4.5358 0
-1092.98 -6.69944 0
-1092.35 -8.55676 0
-1091.69 -10.1361 0
-1091 -11.4648 0
-1090.28 -12.5693 0
-1089.53 -13.4743 0
-1088.74 -14.2019 0
-1087.92 -14.7725 0
-1087.06 -15.2035 0
-1086.17 -15.5112 0
-1085.25 -15.709 0
-1084.29 -15.8095 0
-1083.31 -15.8235 0
-1082.29 -15.7604 0
-1081.25 -15.6285 0
-1080.17 -15.4351 0
-1079.07 -15.1863 0
-1077.94 -14.8886 0
-1076.79 -14.5463 0
-1075.61 -14.1654 0
-1074.41 -13.7488 0
-1073.18 -13.3016 0
-1071.93 -12.8269 0
-1070.66 -12.3287 0
-1069.36 -11.8096 0
-1068.04 -11.2741 0
-1066.7 -10.7237 0
-1065.34 -10.1623 0
-1063.96 -9.59284 0
-1062.56 -9.01746 0
-1061.14 -8.43879 0
-1059.7 -7.85965 0
-1058.24 -7.28173 0
-1056.77 -6.70725 0
-1055.28 -6.13847 0
-1053.77 -5.57729 0
-1052.25 -5.02463 0
-1050.71 -4.48279 0
-1049.16 -3.95303 0
-1047.6 -3.43691 0
-1046.03 -2.93521 0
-1044.44 -2.44903 0
-1042.84 -1.97934 0
-1041.23 -1.52693 0
-1039.62 -1.0925 0
-1037.99 -0.676944 0
-1036.35 -0.280949 0
-1034.71 0.095451 0
-1033.06 0.451762 0
-1031.4 0.788171 0
-1029.74 1.10364 0
-1028.07 1.39852 0
-1026.4 1.67268 0
-1024.72 1.92698 0
-1023.04 2.16025 0
-1021.36 2.37289 0
-1019.67 2.56586 0
-1017.98 2.73926 0
-1016.28 2.89236 0
-1014.59 3.02617 0
-1012.9 3.14216 0
-1011.2 3.23906 0
-1009.5 3.31876 0
-1007.81 3.38078 0
-1006.11 3.42629 0
-1004.41 3.45543 0
-1002.72 3.46869 0
-1001.02 3.46674 0
-999.331 3.45056 0
-997.639 3.42085 0
-995.949 3.37785 0
-994.26 3.32254 0
-992.574 3.25465 0
-990.89 3.17611 0
-989.208 3.08602 0
-987.528 2.98704 0
-985.852 2.87831 0
-984.177 2.76145 0
-982.505 2.63689 0
-980.837 2.50499 0
-979.171 2.3666 0
-977.507 2.22255 0
-975.847 2.07282 0
-974.189 1.91856 0
-972.535 1.76006 0
-970.884 1.5984 0