<?xml version="1.0"?>
<VTKFile type="StructuredGrid"  version="0.1" byte_order="LittleEndian" compressor="vtkZLibDataCompressor">
  <StructuredGrid WholeExtent="0 700 0 30 0 0">
    <Piece Extent="0 700 0 30 0 0">
      <PointData Vectors="Velocity">
        <DataArray type="Float32" Name="Velocity" NumberOfComponents="3" format="ascii">
-1094.11 77.4985 0
-1094.25 70.0438 0
-1094.46 62.7654 0
-1094.71 55.776 0
-1094.94 49.1075 0
-1095.13 42.7073 0
-1095.31 36.5258 0
-1095.53 30.6138 0
-1095.76 25.0479 0
-1095.98 19.8578 0
-1096.19 15.0443 0
-1096.37 10.6024 0
-1096.51 6.52285 0
-1096.62 2.79184 0
-1096.68 -0.605599 0
-1096.69 -3.68928 0
-1096.64 -6.4794 0
-1096.52 -8.99642 0
-1096.35 -11.2611 0
-1096.1 -13.2915 0
-1095.8 -15.1065 0
-1095.43 -16.7226 0
-1095.01 -18.1559 0
-1094.53 -19.4209 0
-1093.99 -20.5297 0
-1093.41 -21.495 0
-1092.78 -22.3266 0
-1092.1 -23.0348 0
-1091.38 -23.6284 0
-1090.62 -24.1153 0
-1089.82 -24.503 0
-1088.99 -24.7974 0
-1088.12 -25.0053 0
-1087.22 -25.1311 0
-1086.28 -25.1815 0
-1085.31 -25.1596 0
-1084.31 -25.0704 0
-1083.28 -24.9186 0
-1082.22 -24.7086 0
-1081.13 -24.4432 0
-1080.02 -24.126 0
-1078.87 -23.7618 0
-1077.7 -23.3542 0
-1076.49 -22.9061 0
-1075.26 -22.42 0
-1074 -21.9005 0
-1072.72 -21.3512 0
-1071.41 -20.7748 0
-1070.08 -20.1737 0
-1068.72 -19.5513 0
-1067.34 -18.9095 0
-1065.93 -18.2524 0
-1064.5 -17.5828 0
-1063.05 -16.9023 0
-1061.58 -16.2131 0
-1060.09 -15.5196 0
-1058.58 -14.8219 0
-1057.05 -14.1217 0
-1055.5 -13.4239 0
-1053.93 -12.7276 0
-1052.35 -12.0352 0
-1050.75 -11.3493 0
-1049.14 -10.669 0
-1047.52 -9.99718 0
-1045.88 -9.33723 0
-1044.22 -8.68668 0
-1042.56 -8.04981 0
-1040.88 -7.4257 0
-1039.2 -6.81595 0
-1037.5 -6.22098 0
-1035.79 -5.64252 0
-1034.08 -5.08143 0
-1032.36 -4.53767 0
-1030.63 -4.01162 0
-1028.89 -3.50304 0
-1027.15 -3.01475 0
-1025.4 -2.54595 0
-1023.64 -2.09739 0
-1021.88 -1.66939 0
-1020.12 -1.26197 0
-1018.35 -0.873758 0
-1016.58 -0.506024 0
-1014.81 -0.158978 0
-1013.03 0.167477 0
-1011.26 0.472363 0
-1009.48 0.756471 0
-1007.7 1.02075 0
-1005.92 1.26483 0
-1004.14 1.48862 0
-1002.35 1.69233 0
-1000.57 1.8763 0
-998.792 2.04039 0
-997.012 2.18651 0
-995.234 2.31292 0
-993.457 2.42159 0
-991.682 2.51157 0
-989.909 2.58479 0
-988.138 2.6388 0
-986.369 2.67736 0
-984.603 2.69959 0
-982.839 2.70553 0
-981.078 2.6958 0
-979.32 2.67246 0
-977.565 2.63418 0
-975.814 2.58196 0
-974.067 2.5164 0
-972.323 2.43912 0
-970.583 2.34748 0
-968.846 2.24605 0
-967.113 2.13207 0
-965.383 2.00852 0
-963.656 1.87342 0
-961.936 1.72976 0
-960.218 1.57735 0
-958.505 1.41599 0
-956.796 1.24772 0
-955.09 1.06998 0
-953.388 0.887584 0
-951.691 0.697399 0
-949.996 0.501209 0
-948.307 0.300703 0
-946.621 0.0953502 0
-944.939 -0.115258 0
-943.261 -0.328056 0
-941.587 -0.545819 0
-939.916 -0.764153 0
-938.249 -0.986422 0
-936.586 -1.20896 0
-934.925 -1.43413 0
-933.268 -1.66097 0
-931.616 -1.88778 0
-929.968 -2.11467 0
-928.321 -2.34129 0
-926.677 -2.56798 0
-925.037 -2.79394 0
-923.399 -3.01739 0
-921.765 -3.23966 0
-920.133 -3.46069 0
-918.503 -3.67944 0
-916.875 -3.89631 0
-915.251 -4.1099 0
-913.628 -4.31946 0
-912.009 -4.52574 0
-910.39 -4.72865 0
-908.774 -4.92772 0
-907.161 -5.1228 0
-905.549 -5.31538 0
-903.938 -5.5019 0
-902.33 -5.68331 0
-900.722 -5.86103 0
-899.116 -6.03203 0
-897.512 -6.19948 0
-895.908 -6.36253 0
-894.305 -6.51911 0
-892.705 -6.66986 0
-891.105 -6.81719 0
-889.504 -6.95817 0
-887.906 -7.09313 0
-886.309 -7.2213 0
-884.71 -7.34546 0
-883.112 -7.46363 0
-881.517 -7.57696 0
-879.919 -7.68318 0
-878.323 -7.7831 0
-876.727 -7.87874 0
-875.131 -7.96717 0
-873.536 -8.05082 0
-871.941 -8.12905 0
-870.344 -8.20129 0
-868.747 -8.26835 0
-867.152 -8.32866 0
-865.554 -8.38605 0
-863.957 -8.43665 0
-862.361 -8.48195 0
-860.763 -8.52113 0
-859.163 -8.55667 0
-857.565 -8.5861 0
-855.965 -8.61038 0
-854.364 -8.63039 0
-852.763 -8.64676 0
-851.162 -8.65567 0
-849.56 -8.66207 0
-847.958 -8.66361 0
-846.355 -8.66229 0
-844.749 -8.65418 0
-843.143 -8.64275 0
-841.537 -8.62802 0
-839.929 -8.6105 0
-838.321 -8.58617 0
-836.711 -8.56177 0
-835.102 -8.53151 0
-833.49 -8.50011 0
-831.879 -8.46432 0
-830.264 -8.42736 0
-828.649 -8.3855 0
-827.034 -8.34227 0
-825.418 -8.29694 0
-823.8 -8.24768 0
-822.182 -8.19746 0
-820.563 -8.1446 0
-818.942 -8.08986 0
-817.32 -8.03343 0
-815.697 -7.97683 0
-814.074 -7.91633 0
-812.45 -7.85654 0
-810.824 -7.79406 0
-809.197 -7.73112 0
-807.57 -7.66723 0
-805.942 -7.60047 0
-804.313 -7.53454 0
-802.682 -7.46795 0
-801.051 -7.40052 0
-799.419 -7.33234 0
-797.787 -7.26407 0
-796.152 -7.19572 0
-794.518 -7.12592 0
-792.884 -7.05688 0
-791.247 -6.98925 0
-789.61 -6.92112 0
-787.972 -6.85296 0
-786.334 -6.78453 0
-784.694 -6.71583 0
-783.056 -6.64841 0
-781.416 -6.5816 0
-779.774 -6.51624 0
-778.132 -6.45038 0
-776.491 -6.38678 0
-774.848 -6.32288 0
-773.203 -6.25932 0
-771.559 -6.19815 0
-769.916 -6.13637 0
-768.27 -6.07702 0
-766.626 -6.02003 0
-764.979 -5.96377 0
-763.332 -5.90851 0
-761.687 -5.85384 0
-760.039 -5.7997 0
-758.392 -5.74762 0
-756.743 -5.69663 0
-755.096 -5.64819 0
-753.448 -5.60144 0
-751.801 -5.55381 0
-750.151 -5.50961 0
-748.502 -5.46512 0
-746.854 -5.42434 0
-745.205 -5.38445 0
-743.557 -5.34593 0
-741.907 -5.30807 0
-740.258 -5.27317 0
-738.607 -5.24018 0
-736.958 -5.2072 0
-735.307 -5.17634 0
-733.656 -5.14745 0
-732.006 -5.12126 0
-730.357 -5.09583 0
-728.707 -5.07199 0
-727.056 -5.0498 0
-725.407 -5.02816 0
-723.758 -5.00854 0
-722.109 -4.99149 0
-720.46 -4.97478 0
-718.81 -4.95842 0
-717.162 -4.94433 0
-715.511 -4.93273 0
-713.862 -4.92339 0
-712.213 -4.91469 0
-710.563 -4.90798 0
-708.915 -4.90184 0
-707.266 -4.8968 0
-705.618 -4.89403 0
-703.97 -4.88991 0
-702.322 -4.88947 0
-700.674 -4.88939 0
-699.027 -4.89092 0
-697.38 -4.89415 0
-695.732 -4.89869 0
-694.086 -4.90464 0
-692.441 -4.91147 0
-690.796 -4.91794 0
-689.15 -4.92509 0
-687.503 -4.93315 0
-685.857 -4.94346 0
-684.214 -4.95392 0
-682.569 -4.96502 0
-680.924 -4.97658 0
-679.279 -4.98956 0
-677.635 -5.00341 0
-675.993 -5.02002 0
-674.35 -5.03547 0
-672.707 -5.05145 0
-671.064 -5.06794 0
-669.421 -5.0852 0
-667.78 -5.10127 0
-666.137 -5.11909 0
-664.495 -5.13793 0
-662.853 -5.15734 0
-661.213 -5.17734 0
-659.573 -5.19769 0
-657.93 -5.21572 0
-656.289 -5.23683 0
-654.65 -5.25727 0
-653.01 -5.2769 0
-651.371 -5.29754 0
-649.732 -5.32001 0
-648.094 -5.34101 0
-646.455 -5.36216 0
-644.816 -5.38374 0
-643.178 -5.40522 0
-641.539 -5.42711 0
-639.901 -5.44981 0
-638.264 -5.47065 0
-636.628 -5.4911 0
-634.99 -5.51261 0
-633.353 -5.53334 0
-631.716 -5.5555 0
-630.08 -5.57514 0
-628.443 -5.59584 0
-626.807 -5.61461 0
-625.17 -5.63515 0
-623.535 -5.65279 0
-621.899 -5.67291 0
-620.263 -5.69212 0
-618.628 -5.71079 0
-616.992 -5.7298 0
-615.357 -5.74765 0
-613.723 -5.76387 0
-612.087 -5.78302 0
-610.453 -5.80149 0
-608.819 -5.81822 0
-607.185 -5.83339 0
-605.55 -5.84846 0
-603.914 -5.86308 0
-602.279 -5.87909 0
-600.646 -5.89341 0
-599.012 -5.9068 0
-597.379 -5.92085 0
-595.744 -5.93273 0
-594.11 -5.94569 0
-592.476 -5.9577 0
-590.843 -5.96799 0
-589.209 -5.98002 0
-587.575 -5.98957 0
-585.941 -6.00146 0
-584.308 -6.00909 0
-582.674 -6.01864 0
-581.041 -6.0273 0
-579.407 -6.03792 0
-577.774 -6.04532 0
-576.139 -6.0518 0
-574.507 -6.05903 0
-572.87 -6.06586 0
-571.238 -6.0724 0
-569.604 -6.07911 0
-567.971 -6.08234 0
-566.337 -6.08735 0
-564.702 -6.09073 0
-563.071 -6.09424 0
-561.435 -6.09795 0
-559.8 -6.10096 0
-558.167 -6.10283 0
-556.534 -6.1037 0
-554.899 -6.10363 0
-553.265 -6.10417 0
-551.63 -6.10592 0
-549.996 -6.10515 0
-548.362 -6.10546 0
-546.728 -6.10436 0
-545.093 -6.10092 0
-543.459 -6.09989 0
-541.825 -6.09663 0
-540.189 -6.09491 0
-538.555 -6.0913 0
-536.92 -6.08736 0
-535.285 -6.0835 0
-533.651 -6.08195 0
-532.015 -6.07878 0
-530.382 -6.07375 0
-528.746 -6.07006 0
-527.111 -6.06593 0
-525.477 -6.05934 0
-523.841 -6.05424 0
-522.205 -6.04862 0
-520.568 -6.04204 0
-518.934 -6.03465 0
-517.299 -6.02848 0
-515.664 -6.02152 0
-514.028 -6.01535 0
-512.393 -6.00865 0
-510.756 -6.00224 0
-509.12 -5.99329 0
-507.483 -5.98654 0
-505.847 -5.97772 0
-504.212 -5.96902 0
-502.577 -5.96114 0
-500.939 -5.95275 0
-499.303 -5.94449 0
-497.667 -5.93683 0
-496.03 -5.92847 0
-494.392 -5.91998 0
-492.757 -5.91073 0
-491.122 -5.90179 0
-489.484 -5.89341 0
-487.847 -5.88485 0
-486.211 -5.87469 0
-484.574 -5.86423 0
-482.938 -5.85649 0
-481.3 -5.84909 0
-479.662 -5.83906 0
-478.024 -5.83175 0
-476.388 -5.82111 0
-474.75 -5.81203 0
-473.114 -5.80364 0
-471.476 -5.79394 0
-469.837 -5.78763 0
-468.2 -5.7778 0
-466.559 -5.76935 0
-464.922 -5.7638 0
-463.286 -5.75774 0
-461.649 -5.74892 0
-460.011 -5.73869 0
-458.373 -5.7311 0
-456.735 -5.71987 0
-455.097 -5.71265 0
-453.458 -5.7057 0
-451.821 -5.69693 0
-450.181 -5.69119 0
-448.543 -5.68239 0
-446.905 -5.67443 0
-445.268 -5.6696 0
-443.63 -5.66168 0
-441.992 -5.65494 0
-440.353 -5.64831 0
-438.715 -5.64081 0
-437.078 -5.63323 0
-435.438 -5.62677 0
-433.801 -5.62126 0
-432.161 -5.61502 0
-430.523 -5.61015 0
-428.884 -5.6039 0
-427.246 -5.5997 0
-425.607 -5.59329 0
-423.968 -5.58882 0
-422.33 -5.58392 0
-420.692 -5.5782 0
-419.054 -5.57357 0
-417.415 -5.56929 0
-415.777 -5.56338 0
-414.138 -5.55956 0
-412.498 -5.55402 0
-410.862 -5.55086 0
-409.223 -5.54896 0
-407.586 -5.54284 0
-405.946 -5.53984 0
-404.307 -5.53724 0
-402.669 -5.53421 0
-401.031 -5.52994 0
-399.392 -5.52555 0
-397.753 -5.52353 0
-396.114 -5.52181 0
-394.476 -5.51858 0
-392.837 -5.51566 0
-391.198 -5.51451 0
-389.562 -5.51352 0
-387.926 -5.51102 0
-386.288 -5.50818 0
-384.649 -5.50685 0
-383.01 -5.50479 0
-381.372 -5.50474 0
-379.735 -5.50393 0
-378.096 -5.5004 0
-376.455 -5.49977 0
-374.819 -5.49765 0
-373.181 -5.49653 0
-371.542 -5.49718 0
-369.902 -5.49455 0
-368.265 -5.49459 0
-366.625 -5.49524 0
-364.987 -5.49621 0
-363.351 -5.49494 0
-361.711 -5.49656 0
-360.074 -5.49734 0
-358.435 -5.49709 0
-356.797 -5.49674 0
-355.159 -5.49608 0
-353.521 -5.49587 0
-351.883 -5.49441 0
-350.244 -5.4965 0
-348.608 -5.4976 0
-346.972 -5.49876 0
-345.336 -5.49861 0
-343.698 -5.50224 0
-342.062 -5.50074 0
-340.424 -5.50098 0
-338.784 -5.50197 0
-337.147 -5.50457 0
-335.511 -5.50699 0
-333.872 -5.50943 0
-332.235 -5.5117 0
-330.598 -5.51101 0
-328.96 -5.5131 0
-327.324 -5.51486 0
-325.685 -5.51634 0
-324.05 -5.51835 0
-322.411 -5.518 0
-320.773 -5.51942 0
-319.135 -5.52149 0
-317.498 -5.52481 0
-315.864 -5.52588 0
-314.227 -5.52662 0
-312.59 -5.5292 0
-310.954 -5.53053 0
-309.317 -5.5308 0
-307.679 -5.53221 0
-306.041 -5.53422 0
-304.404 -5.53486 0
-302.766 -5.53641 0
-301.127 -5.53922 0
-299.491 -5.54036 0
-297.855 -5.54367 0
-296.218 -5.54483 0
-294.581 -5.54611 0
-292.944 -5.5469 0
-291.31 -5.54961 0
-289.674 -5.5518 0
-288.037 -5.55077 0
-286.399 -5.55179 0
-284.763 -5.55467 0
-283.125 -5.55463 0
-281.489 -5.55542 0
-279.851 -5.55749 0
-278.214 -5.5595 0
-276.577 -5.56026 0
-274.94 -5.56203 0
-273.305 -5.56335 0
-271.668 -5.56226 0
-270.032 -5.56534 0
-268.394 -5.56519 0
-266.757 -5.56582 0
-265.12 -5.56573 0
-263.484 -5.56699 0
-261.846 -5.56753 0
-260.211 -5.56726 0
-258.576 -5.57022 0
-256.938 -5.57118 0
-255.302 -5.57066 0
-253.665 -5.57105 0
-252.029 -5.57151 0
-250.391 -5.57258 0
-248.755 -5.57222 0
-247.119 -5.57394 0
-245.481 -5.57502 0
-243.846 -5.57614 0
-242.209 -5.57819 0
-240.575 -5.57628 0
-238.936 -5.57553 0
-237.301 -5.57494 0
-235.664 -5.57711 0
-234.028 -5.57729 0
-232.392 -5.5764 0
-230.752 -5.57825 0
-229.115 -5.57951 0
-227.478 -5.57886 0
-225.844 -5.57792 0
-224.205 -5.57947 0
-222.57 -5.57841 0
-220.933 -5.57907 0
-219.296 -5.58137 0
-217.66 -5.58108 0
-216.025 -5.57797 0
-214.39 -5.57754 0
-212.753 -5.57644 0
-211.116 -5.57701 0
-209.48 -5.57648 0
-207.843 -5.57763 0
-206.206 -5.57691 0
-204.57 -5.57463 0
-202.934 -5.5744 0
-201.296 -5.57484 0
-199.657 -5.57636 0
-198.021 -5.57404 0
-196.386 -5.57372 0
-194.75 -5.5727 0
-193.114 -5.57188 0
-191.479 -5.56901 0
-189.842 -5.56812 0
-188.204 -5.57154 0
-186.566 -5.56929 0
-184.932 -5.56972 0
-183.296 -5.56488 0
-181.658 -5.56499 0
-180.021 -5.56385 0
-178.385 -5.56195 0
-176.751 -5.5608 0
-175.115 -5.56181 0
-173.479 -5.55948 0
-171.844 -5.55553 0
-170.207 -5.55648 0
-168.567 -5.55428 0
-166.929 -5.55403 0
-165.292 -5.55286 0
-163.655 -5.5514 0
-162.018 -5.54869 0
-160.382 -5.54877 0
-158.748 -5.5454 0
-157.11 -5.54542 0
-155.473 -5.54479 0
-153.838 -5.543 0
-152.2 -5.54266 0
-150.565 -5.54316 0
-148.929 -5.54259 0
-147.294 -5.54069 0
-145.655 -5.53618 0
-144.018 -5.53688 0
-142.381 -5.53403 0
-140.745 -5.53308 0
-139.108 -5.53184 0
-137.471 -5.53256 0
-135.836 -5.53321 0
-134.199 -5.53144 0
-132.563 -5.53039 0
-130.926 -5.52591 0
-129.29 -5.52745 0
-127.655 -5.52848 0
-126.017 -5.52546 0
-124.38 -5.52523 0
-122.744 -5.52399 0
-121.108 -5.52403 0
-119.471 -5.5199 0
-117.836 -5.51914 0
-116.197 -5.51833 0
-114.561 -5.51701 0
-112.924 -5.51667 0
-111.285 -5.5173 0
-109.649 -5.51597 0
-108.013 -5.51425 0
-106.378 -5.51272 0
-104.74 -5.51306 0
-103.103 -5.51204 0
-101.467 -5.50913 0
-99.8301 -5.50822 0
-98.1944 -5.50605 0
-96.5574 -5.50763 0
-94.9211 -5.50394 0
-93.2859 -5.50424 0
-91.6478 -5.50033 0
-90.0112 -5.50126 0
-88.3761 -5.49994 0
-86.7362 -5.49822 0
-85.1001 -5.50021 0
-83.4653 -5.49567 0
-81.829 -5.49597 0
-80.1913 -5.4978 0
-78.5562 -5.49596 0
-76.9173 -5.4949 0
-75.2801 -5.49347 0
-73.6463 -5.49429 0
-72.0083 -5.49357 0
-70.3722 -5.49032 0
-68.7337 -5.48926 0
-67.0979 -5.48758 0
-65.4613 -5.48593 0
-63.8252 -5.48655 0
-62.1889 -5.48353 0
-60.5521 -5.48395 0
-58.9152 -5.48208 0
-57.2764 -5.48197 0
-55.6404 -5.48103 0
-54.0048 -5.48242 0
-52.3681 -5.48286 0
-50.7322 -5.48123 0
-49.0948 -5.47887 0
-47.4587 -5.47815 0
-45.822 -5.47876 0
-44.186 -5.48037 0
-42.5501 -5.47708 0
-40.9139 -5.47539 0
-39.2781 -5.47581 0
-37.6419 -5.4771 0
-36.0065 -5.47645 0
-34.3684 -5.47347 0
-32.7318 -5.47242 0
-31.094 -5.47272 0
-29.4574 -5.47378 0
-27.8198 -5.47054 0
-26.1827 -5.47066 0
-24.5482 -5.47315 0
-22.9124 -5.4706 0
-21.275 -5.47095 0
-19.6382 -5.46872 0
-18 -5.46915 0
-16.3651 -5.46743 0
-14.731 -5.46757 0
-13.0936 -5.46759 0
-11.4574 -5.46635 0
-9.82247 -5.46717 0
-8.18385 -5.46577 0
-6.5467 -5.46794 0
-4.91066 -5.46794 0
-3.27278 -5.46527 0
-1.63682 -5.46965 0
0 -5.47075 0
-1101.57 77.6863 0
-1101.57 70.1795 0
-1101.55 62.8824 0
-1101.49 55.882 0
-1101.44 49.2047 0
-1101.42 42.7989 0
-1101.39 36.614 0
-1101.31 30.7012 0
-1101.18 25.1345 0
-1101.03 19.9457 0
-1100.86 15.1378 0
-1100.67 10.707 0
-1100.47 6.64491 0
-1100.23 2.9391 0
-1099.96 -0.426387 0
-1099.66 -3.47188 0
-1099.32 -6.21853 0
-1098.94 -8.68921 0
-1098.52 -10.9043 0
-1098.05 -12.8852 0
-1097.53 -14.651 0
-1096.97 -16.2186 0
-1096.37 -17.6045 0
-1095.72 -18.8236 0
-1095.04 -19.8897 0
-1094.31 -20.8128 0
-1093.55 -21.605 0
-1092.76 -22.2755 0
-1091.92 -22.8335 0
-1091.06 -23.2859 0
-1090.17 -23.6405 0
-1089.24 -23.9032 0
-1088.29 -24.0805 0
-1087.31 -24.176 0
-1086.3 -24.1968 0
-1085.26 -24.1462 0
-1084.2 -24.0289 0
-1083.11 -23.849 0
-1081.99 -23.611 0
-1080.85 -23.3189 0
-1079.68 -22.975 0
-1078.49 -22.5845 0
-1077.27 -22.1506 0
-1076.03 -21.676 0
-1074.77 -21.1647 0
-1073.48 -20.6207 0
-1072.16 -20.0468 0
-1070.83 -19.4462 0
-1069.47 -18.8218 0
-1068.09 -18.1769 0
-1066.69 -17.5129 0
-1065.27 -16.835 0
-1063.83 -16.1436 0
-1062.37 -15.4435 0
-1060.89 -14.7355 0
-1059.4 -14.0224 0
-1057.88 -13.3064 0
-1056.35 -12.59 0
-1054.81 -11.8751 0
-1053.25 -11.1631 0
-1051.67 -10.4553 0
-1050.08 -9.75479 0
-1048.47 -9.06062 0
-1046.86 -8.37612 0
-1045.23 -7.70358 0
-1043.59 -7.04184 0
-1041.94 -6.39328 0
-1040.27 -5.75918 0
-1038.6 -5.1395 0
-1036.92 -4.53548 0
-1035.23 -3.94859 0
-1033.53 -3.37911 0
-1031.83 -2.82797 0
-1030.12 -2.29521 0
-1028.4 -1.78073 0
-1026.67 -1.28686 0
-1024.94 -0.812184 0
-1023.21 -0.359268 0
-1021.47 0.0731951 0
-1019.73 0.485264 0
-1017.98 0.876204 0
-1016.23 1.24718 0
-1014.48 1.59633 0
-1012.72 1.92449 0
-1010.97 2.23095 0
-1009.21 2.51681 0
-1007.45 2.78252 0
-1005.69 3.02661 0
-1003.92 3.25059 0
-1002.16 3.4544 0
-1000.4 3.6375 0
-998.64 3.80136 0
-996.879 3.94599 0
-995.119 4.07183 0
-993.36 4.17889 0
-991.603 4.26729 0
-989.847 4.33813 0
-988.093 4.39098 0
-986.341 4.42723 0
-984.59 4.44758 0
-982.842 4.45057 0
-981.096 4.43808 0
-979.353 4.41139 0
-977.612 4.37029 0
-975.875 4.31442 0
-974.139 4.24616 0
-972.408 4.16495 0
-970.678 4.07096 0
-968.953 3.96546 0
-967.231 3.84844 0
-965.511 3.72091 0
-963.796 3.58331 0
-962.084 3.43538 0
-960.375 3.2785 0
-958.669 3.11394 0
-956.968 2.94161 0
-955.269 2.76105 0
-953.573 2.57402 0
-951.882 2.38063 0
-950.193 2.18133 0
-948.509 1.97719 0
-946.827 1.76774 0
-945.149 1.55345 0
-943.475 1.33688 0
-941.804 1.11682 0
-940.135 0.893595 0
-938.47 0.669446 0
-936.808 0.442381 0
-935.15 0.214062 0
-933.494 -0.0159264 0
-931.842 -0.246278 0
-930.193 -0.476334 0
-928.546 -0.70515 0
-926.901 -0.933999 0
-925.259 -1.16289 0
-923.621 -1.38953 0
-921.985 -1.61503 0
-920.35 -1.83794 0
-918.719 -2.05851 0
-917.089 -2.27746 0
-915.461 -2.49324 0
-913.836 -2.70573 0
-912.212 -2.91377 0
-910.59 -3.11859 0
-908.97 -3.31944 0
-907.352 -3.51696 0
-905.736 -3.71094 0
-904.121 -3.89884 0
-902.508 -4.08199 0
-900.896 -4.26037 0
-899.285 -4.43327 0
-897.675 -4.6018 0
-896.067 -4.76537 0
-894.459 -4.92397 0
-892.853 -5.07639 0
-891.247 -5.22326 0
-889.643 -5.36541 0
-888.038 -5.50105 0
-886.434 -5.62978 0
-884.829 -5.75441 0
-883.228 -5.8735 0
-881.625 -5.98553 0
-880.022 -6.09298 0
-878.421 -6.19312 0
-876.819 -6.28838 0
-875.217 -6.37801 0
-873.616 -6.46181 0
-872.014 -6.53925 0
-870.414 -6.61104 0
-868.811 -6.67784 0
-867.209 -6.73869 0
-865.608 -6.79525 0
-864.005 -6.8454 0
-862.402 -6.89081 0
-860.8 -6.92908 0
-859.196 -6.96364 0
-857.591 -6.9927 0
-855.986 -7.01686 0
-854.382 -7.03662 0
-852.777 -7.05183 0
-851.17 -7.0606 0
-849.564 -7.06622 0
-847.957 -7.06709 0
-846.349 -7.0634 0
-844.74 -7.05559 0
-843.131 -7.04376 0
-841.52 -7.02775 0
-839.908 -7.00858 0
-838.296 -6.98515 0
-836.684 -6.95975 0
-835.071 -6.92916 0
-833.457 -6.89527 0
-831.841 -6.85983 0
-830.225 -6.82045 0
-828.607 -6.77801 0
-826.989 -6.7344 0
-825.371 -6.68763 0
-823.751 -6.63767 0
-822.131 -6.58637 0
-820.509 -6.53224 0
-818.887 -6.47695 0
-817.263 -6.41988 0
-815.639 -6.36125 0
-814.014 -6.3013 0
-812.388 -6.23987 0
-810.762 -6.17643 0
-809.134 -6.11233 0
-807.506 -6.04729 0
-805.877 -5.98092 0
-804.247 -5.91263 0
-802.616 -5.84527 0
-800.984 -5.77757 0
-799.351 -5.70884 0
-797.718 -5.64012 0
-796.085 -5.57005 0
-794.45 -5.50063 0
-792.815 -5.43051 0
-791.179 -5.36187 0
-789.542 -5.29233 0
-787.904 -5.2233 0
-786.266 -5.15473 0
-784.628 -5.08585 0
-782.99 -5.01787 0
-781.351 -4.95018 0
-779.71 -4.8842 0
-778.068 -4.81853 0
-776.428 -4.75246 0
-774.784 -4.68923 0
-773.142 -4.62486 0
-771.499 -4.56352 0
-769.855 -4.50093 0
-768.212 -4.4414 0
-766.568 -4.38369 0
-764.923 -4.32653 0
-763.278 -4.27157 0
-761.633 -4.21619 0
-759.987 -4.16193 0
-758.341 -4.10989 0
-756.695 -4.05923 0
-755.048 -4.01037 0
-753.401 -3.96307 0
-751.755 -3.91514 0
-750.108 -3.87014 0
-748.461 -3.82625 0
-746.813 -3.78503 0
-745.166 -3.74541 0
-743.518 -3.70553 0
-741.871 -3.66913 0
-740.223 -3.63309 0
-738.574 -3.59987 0
-736.926 -3.56682 0
-735.278 -3.53594 0
-733.63 -3.50721 0
-731.98 -3.48062 0
-730.332 -3.45502 0
-728.683 -3.43131 0
-727.034 -3.4087 0
-725.387 -3.3886 0
-723.739 -3.36871 0
-722.091 -3.35053 0
-720.443 -3.33402 0
-718.796 -3.31835 0
-717.148 -3.30501 0
-715.501 -3.29384 0
-713.852 -3.2837 0
-712.205 -3.27573 0
-710.557 -3.26842 0
-708.909 -3.26215 0
-707.262 -3.25795 0
-705.615 -3.25547 0
-703.968 -3.25292 0
-702.323 -3.25079 0
-700.676 -3.25174 0
-699.029 -3.25303 0
-697.384 -3.25631 0
-695.737 -3.26019 0
-694.092 -3.26771 0
-692.448 -3.274 0
-690.802 -3.28178 0
-689.157 -3.28899 0
-687.512 -3.2976 0
-685.868 -3.3087 0
-684.224 -3.31867 0
-682.581 -3.32879 0
-680.937 -3.34191 0
-679.293 -3.35464 0
-677.65 -3.36968 0
-676.006 -3.38566 0
-674.365 -3.40142 0
-672.722 -3.41726 0
-671.08 -3.43338 0
-669.439 -3.45137 0
-667.797 -3.46868 0
-666.155 -3.48646 0
-664.514 -3.50491 0
-662.873 -3.5248 0
-661.232 -3.54409 0
-659.591 -3.56483 0
-657.95 -3.58419 0
-656.311 -3.60622 0
-654.67 -3.62686 0
-653.031 -3.64827 0
-651.392 -3.66881 0
-649.753 -3.69011 0
-648.114 -3.71124 0
-646.476 -3.73304 0
-644.838 -3.7554 0
-643.2 -3.77661 0
-641.562 -3.79802 0
-639.923 -3.8212 0
-638.285 -3.84143 0
-636.647 -3.86342 0
-635.01 -3.88462 0
-633.373 -3.90625 0
-631.736 -3.92767 0
-630.1 -3.94766 0
-628.463 -3.96823 0
-626.826 -3.98838 0
-625.189 -4.00763 0
-623.554 -4.02644 0
-621.919 -4.04597 0
-620.283 -4.06531 0
-618.647 -4.08392 0
-617.011 -4.10215 0
-615.375 -4.12095 0
-613.739 -4.13902 0
-612.104 -4.15707 0
-610.47 -4.17548 0
-608.836 -4.19268 0
-607.201 -4.20788 0
-605.565 -4.22296 0
-603.93 -4.2371 0
-602.295 -4.25349 0
-600.66 -4.26797 0
-599.025 -4.28073 0
-597.391 -4.29578 0
-595.757 -4.30751 0
-594.123 -4.31976 0
-592.487 -4.33269 0
-590.853 -4.344 0
-589.219 -4.35496 0
-587.586 -4.36512 0
-585.951 -4.37684 0
-584.317 -4.38507 0
-582.683 -4.39391 0
-581.05 -4.40311 0
-579.416 -4.4125 0
-577.781 -4.42092 0
-576.147 -4.42744 0
-574.512 -4.43411 0
-572.878 -4.44119 0
-571.245 -4.44763 0
-569.612 -4.45248 0
-567.977 -4.45766 0
-566.341 -4.46224 0
-564.706 -4.4662 0
-563.072 -4.46815 0
-561.438 -4.4718 0
-559.803 -4.47515 0
-558.168 -4.47764 0
-556.534 -4.4782 0
-554.899 -4.47884 0
-553.265 -4.47944 0
-551.63 -4.47973 0
-549.996 -4.48062 0
-548.361 -4.4793 0
-546.725 -4.47819 0
-545.091 -4.47641 0
-543.456 -4.47343 0
-541.822 -4.47142 0
-540.187 -4.46934 0
-538.552 -4.46602 0
-536.917 -4.46194 0
-535.283 -4.45841 0
-533.648 -4.45601 0
-532.013 -4.45303 0
-530.378 -4.44854 0
-528.741 -4.44485 0
-527.105 -4.43995 0
-525.469 -4.43445 0
-523.834 -4.42756 0
-522.199 -4.42119 0
-520.563 -4.41529 0
-518.926 -4.40815 0
-517.292 -4.40203 0
-515.657 -4.39531 0
-514.022 -4.38948 0
-512.386 -4.38145 0
-510.75 -4.37343 0
-509.113 -4.36582 0
-507.477 -4.35861 0
-505.84 -4.35091 0
-504.204 -4.34186 0
-502.568 -4.33386 0
-500.932 -4.32561 0
-499.295 -4.31797 0
-497.659 -4.30923 0
-496.022 -4.30076 0
-494.385 -4.29263 0
-492.749 -4.28332 0
-491.112 -4.27448 0
-489.476 -4.26464 0
-487.838 -4.25711 0
-486.201 -4.24655 0
-484.565 -4.23578 0
-482.929 -4.22871 0
-481.29 -4.21944 0
-479.653 -4.21044 0
-478.016 -4.20293 0
-476.378 -4.19311 0
-474.741 -4.18396 0
-473.104 -4.17519 0
-471.467 -4.16663 0
-469.83 -4.15786 0
-468.192 -4.14823 0
-466.554 -4.14132 0
-464.916 -4.13415 0
-463.279 -4.12789 0
-461.64 -4.11935 0
-460.001 -4.1096 0
-458.364 -4.10047 0
-456.726 -4.0905 0
-455.088 -4.08383 0
-453.45 -4.0764 0
-451.812 -4.06774 0
-450.174 -4.06202 0
-448.537 -4.0535 0
-446.898 -4.04582 0
-445.261 -4.03993 0
-443.623 -4.03311 0
-441.985 -4.02473 0
-440.346 -4.01888 0
-438.708 -4.01159 0
-437.071 -4.00452 0
-435.432 -3.99763 0
-433.795 -3.99171 0
-432.156 -3.98529 0
-430.518 -3.98072 0
-428.879 -3.97443 0
-427.241 -3.9697 0
-425.604 -3.96361 0
-423.963 -3.95908 0
-422.325 -3.95445 0
-420.687 -3.94813 0
-419.048 -3.94411 0
-417.411 -3.93963 0
-415.772 -3.93389 0
-414.134 -3.93028 0
-412.496 -3.92438 0
-410.858 -3.92046 0
-409.219 -3.91875 0
-407.581 -3.91392 0
-405.943 -3.90985 0
-404.305 -3.9076 0
-402.666 -3.90414 0
-401.028 -3.90015 0
-399.389 -3.89723 0
-397.75 -3.89382 0
-396.112 -3.89129 0
-394.473 -3.88943 0
-392.835 -3.88613 0
-391.198 -3.8846 0
-389.562 -3.88359 0
-387.922 -3.88168 0
-386.285 -3.8795 0
-384.647 -3.87783 0
-383.009 -3.87497 0
-381.371 -3.87594 0
-379.732 -3.87417 0
-378.094 -3.87219 0
-376.456 -3.87056 0
-374.818 -3.86875 0
-373.179 -3.86841 0
-371.541 -3.86687 0
-369.902 -3.86561 0
-368.264 -3.8662 0
-366.626 -3.86587 0
-364.988 -3.86709 0
-363.35 -3.86671 0
-361.711 -3.86686 0
-360.073 -3.86736 0
-358.434 -3.86727 0
-356.796 -3.86849 0
-355.159 -3.86735 0
-353.52 -3.86668 0
-351.884 -3.86667 0
-350.247 -3.86724 0
-348.609 -3.86784 0
-346.972 -3.87077 0
-345.336 -3.87048 0
-343.698 -3.8726 0
-342.06 -3.87262 0
-340.423 -3.8724 0
-338.785 -3.8747 0
-337.15 -3.87649 0
-335.513 -3.87788 0
-333.875 -3.8802 0
-332.237 -3.8811 0
-330.599 -3.88308 0
-328.962 -3.88375 0
-327.326 -3.88617 0
-325.688 -3.88769 0
-324.05 -3.88987 0
-322.413 -3.88965 0
-320.776 -3.89055 0
-319.138 -3.89392 0
-317.5 -3.89604 0
-315.864 -3.89823 0
-314.228 -3.90024 0
-312.591 -3.90127 0
-310.954 -3.90236 0
-309.317 -3.90165 0
-307.681 -3.9028 0
-306.044 -3.90483 0
-304.407 -3.90647 0
-302.767 -3.90793 0
-301.132 -3.91138 0
-299.495 -3.91368 0
-297.855 -3.91624 0
-296.22 -3.91652 0
-294.583 -3.91906 0
-292.947 -3.91897 0
-291.31 -3.92193 0
-289.675 -3.92386 0
-288.038 -3.92287 0
-286.401 -3.92416 0
-284.764 -3.92566 0
-283.128 -3.92748 0
-281.491 -3.92832 0
-279.853 -3.92822 0
-278.215 -3.93093 0
-276.58 -3.93208 0
-274.943 -3.93359 0
-273.305 -3.93446 0
-271.67 -3.93429 0
-270.033 -3.93522 0
-268.397 -3.93687 0
-266.759 -3.9388 0
-265.121 -3.9379 0
-263.485 -3.93886 0
-261.849 -3.94071 0
-260.212 -3.94151 0
-258.576 -3.94121 0
-256.939 -3.94111 0
-255.303 -3.94236 0
-253.667 -3.94331 0
-252.029 -3.94371 0
-250.394 -3.94514 0
-248.756 -3.94443 0
-247.12 -3.94719 0
-245.482 -3.94789 0
-243.847 -3.94919 0
-242.21 -3.94906 0
-240.574 -3.9494 0
-238.938 -3.94748 0
-237.301 -3.94718 0
-235.665 -3.94957 0
-234.027 -3.94864 0
-232.39 -3.95014 0
-230.753 -3.9502 0
-229.117 -3.95183 0
-227.48 -3.95232 0
-225.843 -3.94985 0
-224.207 -3.95097 0
-222.57 -3.95097 0
-220.934 -3.95184 0
-219.299 -3.95394 0
-217.662 -3.95305 0
-216.024 -3.95124 0
-214.389 -3.95124 0
-212.753 -3.95064 0
-211.117 -3.94949 0
-209.479 -3.95009 0
-207.841 -3.9491 0
-206.206 -3.94861 0
-204.57 -3.94826 0
-202.933 -3.94718 0
-201.296 -3.94771 0
-199.659 -3.94732 0
-198.022 -3.94732 0
-196.385 -3.94587 0
-194.749 -3.94513 0
-193.113 -3.94413 0
-191.477 -3.94155 0
-189.842 -3.94215 0
-188.206 -3.94154 0
-186.568 -3.9408 0
-184.932 -3.94068 0
-183.293 -3.93702 0
-181.657 -3.9378 0
-180.021 -3.93744 0
-178.385 -3.9357 0
-176.75 -3.93278 0
-175.112 -3.93426 0
-173.475 -3.93046 0
-171.84 -3.92881 0
-170.203 -3.92713 0
-168.567 -3.92567 0
-166.928 -3.92606 0
-165.291 -3.92572 0
-163.653 -3.9229 0
-162.017 -3.92214 0
-160.38 -3.92119 0
-158.745 -3.91719 0
-157.108 -3.91635 0
-155.472 -3.91852 0
-153.836 -3.91642 0
-152.201 -3.91677 0
-150.565 -3.91601 0
-148.927 -3.91474 0
-147.29 -3.91168 0
-145.654 -3.90924 0
-144.017 -3.90807 0
-142.38 -3.90639 0
-140.743 -3.90557 0
-139.108 -3.90374 0
-137.471 -3.90484 0
-135.834 -3.9056 0
-134.198 -3.90343 0
-132.562 -3.90094 0
-130.924 -3.89944 0
-129.289 -3.89925 0
-127.652 -3.90071 0
-126.015 -3.89734 0
-124.379 -3.89722 0
-122.742 -3.89623 0
-121.105 -3.8956 0
-119.47 -3.89209 0
-117.832 -3.89093 0
-116.195 -3.89068 0
-114.559 -3.89008 0
-112.923 -3.89013 0
-111.286 -3.88828 0
-109.648 -3.88684 0
-108.012 -3.88654 0
-106.375 -3.88636 0
-104.738 -3.88449 0
-103.102 -3.88383 0
-101.465 -3.87933 0
-99.8301 -3.88039 0
-98.1944 -3.87908 0
-96.5576 -3.88044 0
-94.9211 -3.87796 0
-93.2837 -3.87682 0
-91.6473 -3.87269 0
-90.0102 -3.87211 0
-88.3733 -3.8719 0
-86.7374 -3.87073 0
-85.0985 -3.87078 0
-83.4616 -3.86926 0
-81.8259 -3.86838 0
-80.1909 -3.86866 0
-78.5541 -3.86759 0
-76.9178 -3.86675 0
-75.2808 -3.8678 0
-73.6439 -3.86603 0
-72.0069 -3.86484 0
-70.3693 -3.86246 0
-68.7337 -3.86071 0
-67.0972 -3.85921 0
-65.4603 -3.8593 0
-63.8238 -3.85789 0
-62.1864 -3.85599 0
-60.5508 -3.85654 0
-58.9126 -3.85427 0
-57.2763 -3.85336 0
-55.6401 -3.85312 0
-54.0053 -3.85315 0
-52.368 -3.85391 0
-50.7314 -3.8521 0
-49.0948 -3.85128 0
-47.4585 -3.8512 0
-45.8203 -3.84951 0
-44.1859 -3.84984 0
-42.5482 -3.84942 0
-40.9115 -3.84932 0
-39.2763 -3.84864 0
-37.6424 -3.8484 0
-36.0056 -3.84908 0
-34.3681 -3.84636 0
-32.7328 -3.84477 0
-31.0926 -3.84454 0
-29.4566 -3.84465 0
-27.8196 -3.8437 0
-26.1834 -3.84332 0
-24.5474 -3.84364 0
-22.9104 -3.84198 0
-21.2754 -3.84245 0
-19.6375 -3.84121 0
-18.0009 -3.84225 0
-16.3631 -3.84104 0
-14.7284 -3.84022 0
-13.092 -3.83935 0
-11.4571 -3.83902 0
-9.81942 -3.84081 0
-8.18464 -3.83959 0
-6.54877 -3.83917 0
-4.90979 -3.84054 0
-3.27488 -3.83924 0
-1.63728 -3.84104 0
0 -3.84322 0
-1109.38 78.2241 0
-1108.97 70.5361 0
-1108.69 63.2637 0
-1108.39 56.2754 0
-1108.08 49.5655 0
-1107.76 43.1272 0
-1107.44 36.9717 0
-1107.06 31.1101 0
-1106.61 25.5727 0
-1106.12 20.3953 0
-1105.6 15.5937 0
-1105.06 11.1697 0
-1104.49 7.11625 0
-1103.92 3.4219 0
-1103.32 0.0719648 0
-1102.71 -2.9542 0
-1102.08 -5.67839 0
-1101.42 -8.12213 0
-1100.74 -10.309 0
-1100.04 -12.2587 0
-1099.31 -13.9923 0
-1098.55 -15.5283 0
-1097.77 -16.8815 0
-1096.96 -18.0686 0
-1096.12 -19.1035 0
-1095.25 -19.9959 0
-1094.36 -20.7585 0
-1093.44 -21.401 0
-1092.49 -21.9315 0
-1091.53 -22.3569 0
-1090.53 -22.685 0
-1089.52 -22.9217 0
-1088.48 -23.074 0
-1087.42 -23.145 0
-1086.33 -23.1411 0
-1085.23 -23.0657 0
-1084.1 -22.9246 0
-1082.95 -22.7211 0
-1081.77 -22.4599 0
-1080.58 -22.1433 0
-1079.36 -21.7769 0
-1078.12 -21.3635 0
-1076.86 -20.9065 0
-1075.58 -20.4101 0
-1074.28 -19.8765 0
-1072.96 -19.3103 0
-1071.62 -18.7157 0
-1070.26 -18.0935 0
-1068.88 -17.449 0
-1067.48 -16.7843 0
-1066.06 -16.1006 0
-1064.63 -15.4039 0
-1063.17 -14.6945 0
-1061.7 -13.9765 0
-1060.22 -13.2516 0
-1058.72 -12.5219 0
-1057.2 -11.7904 0
-1055.67 -11.0588 0
-1054.12 -10.3285 0
-1052.57 -9.60221 0
-1050.99 -8.88068 0
-1049.41 -8.16692 0
-1047.81 -7.46069 0
-1046.2 -6.76537 0
-1044.58 -6.08108 0
-1042.95 -5.40873 0
-1041.32 -4.75039 0
-1039.67 -4.10634 0
-1038.01 -3.47794 0
-1036.34 -2.8662 0
-1034.67 -2.27121 0
-1032.99 -1.69444 0
-1031.3 -1.13625 0
-1029.61 -0.597355 0
-1027.91 -0.0768119 0
-1026.2 0.422621 0
-1024.49 0.901181 0
-1022.78 1.35958 0
-1021.06 1.79627 0
-1019.33 2.21208 0
-1017.61 2.60679 0
-1015.88 2.97928 0
-1014.15 3.33094 0
-1012.41 3.6611 0
-1010.67 3.96959 0
-1008.93 4.2567 0
-1007.2 4.52335 0
-1005.45 4.76875 0
-1003.71 4.99332 0
-1001.97 5.19657 0
-1000.23 5.38042 0
-998.486 5.54358 0
-996.744 5.68721 0
-995.002 5.81269 0
-993.261 5.91865 0
-991.522 6.0052 0
-989.783 6.07475 0
-988.046 6.12637 0
-986.31 6.16171 0
-984.575 6.17882 0
-982.842 6.18018 0
-981.111 6.16613 0
-979.383 6.13588 0
-977.657 6.09274 0