<?xml version="1.0"?>
<VTKFile type="StructuredGrid"  version="0.1" byte_order="LittleEndian" compressor="vtkZLibDataCompressor">
  <StructuredGrid WholeExtent="0 700 0 30 0 0">
    <Piece Extent="0 700 0 30 0 0">
      <PointData Vectors="Velocity">
        <DataArray type="Float32" Name="Velocity" NumberOfComponents="3" format="ascii">
-1083.35 51.3996 0
-1083.6 45.1765 0
-1083.91 39.1425 0
-1084.25 33.4257 0
-1084.56 28.0603 0
-1084.79 22.9523 0
-1085.03 18.0394 0
-1085.31 13.4197 0
-1085.6 9.18155 0
-1085.86 5.33853 0
-1086.08 1.88107 0
-1086.27 -1.20233 0
-1086.4 -3.92872 0
-1086.48 -6.31714 0
-1086.49 -8.39149 0
-1086.42 -10.178 0
-1086.28 -11.7022 0
-1086.05 -12.9893 0
-1085.75 -14.0634 0
-1085.36 -14.9467 0
-1084.9 -15.6589 0
-1084.37 -16.2189 0
-1083.77 -16.6434 0
-1083.1 -16.9477 0
-1082.38 -17.1448 0
-1081.59 -17.247 0
-1080.76 -17.2652 0
-1079.87 -17.2085 0
-1078.94 -17.0859 0
-1077.97 -16.9045 0
-1076.96 -16.6703 0
-1075.9 -16.3905 0
-1074.81 -16.0699 0
-1073.69 -15.7132 0
-1072.53 -15.3248 0
-1071.34 -14.9087 0
-1070.12 -14.4688 0
-1068.87 -14.0088 0
-1067.6 -13.5313 0
-1066.29 -13.0397 0
-1064.96 -12.5363 0
-1063.6 -12.0247 0
-1062.21 -11.5074 0
-1060.81 -10.9865 0
-1059.38 -10.4643 0
-1057.92 -9.94331 0
-1056.45 -9.42528 0
-1054.95 -8.91245 0
-1053.44 -8.40586 0
-1051.91 -7.90764 0
-1050.36 -7.4195 0
-1048.79 -6.94282 0
-1047.21 -6.47819 0
-1045.61 -6.02709 0
-1044 -5.5911 0
-1042.38 -5.17016 0
-1040.74 -4.76527 0
-1039.1 -4.37804 0
-1037.44 -4.00829 0
-1035.78 -3.6562 0
-1034.1 -3.323 0
-1032.42 -3.00775 0
-1030.74 -2.71244 0
-1029.04 -2.43586 0
-1027.34 -2.17852 0
-1025.64 -1.93996 0
-1023.93 -1.72123 0
-1022.22 -1.52128 0
-1020.5 -1.33965 0
-1018.79 -1.17729 0
-1017.07 -1.03296 0
-1015.35 -0.906927 0
-1013.63 -0.797651 0
-1011.91 -0.706388 0
-1010.19 -0.631923 0
-1008.47 -0.573774 0
-1006.75 -0.531618 0
-1005.03 -0.503695 0
-1003.32 -0.490934 0
-1001.61 -0.492723 0
-999.894 -0.50763 0
-998.186 -0.535897 0
-996.479 -0.575596 0
-994.777 -0.627108 0
-993.077 -0.690192 0
-991.381 -0.763303 0
-989.688 -0.846142 0
-987.999 -0.938065 0
-986.314 -1.03865 0
-984.632 -1.14644 0
-982.955 -1.26131 0
-981.281 -1.38265 0
-979.611 -1.51008 0
-977.946 -1.64337 0
-976.284 -1.78058 0
-974.626 -1.92212 0
-972.973 -2.06697 0
-971.323 -2.2146 0
-969.677 -2.36563 0
-968.035 -2.51755 0
-966.397 -2.67152 0
-964.763 -2.82505 0
-963.132 -2.9796 0
-961.505 -3.1328 0
-959.881 -3.28672 0
-958.26 -3.43973 0
-956.643 -3.59111 0
-955.029 -3.74061 0
-953.417 -3.88733 0
-951.809 -4.03309 0
-950.203 -4.17596 0
-948.6 -4.31409 0
-947 -4.4499 0
-945.401 -4.58171 0
-943.805 -4.70997 0
-942.211 -4.83482 0
-940.618 -4.95389 0
-939.027 -5.06907 0
-937.437 -5.17938 0
-935.849 -5.28589 0
-934.262 -5.38684 0
-932.677 -5.48341 0
-931.094 -5.57393 0
-929.511 -5.66071 0
-927.928 -5.74182 0
-926.346 -5.81694 0
-924.765 -5.88858 0
-923.184 -5.95444 0
-921.603 -6.01429 0
-920.024 -6.06942 0
-918.444 -6.11996 0
-916.864 -6.1647 0
-915.284 -6.20488 0
-913.704 -6.23994 0
-912.123 -6.27021 0
-910.543 -6.29609 0
-908.962 -6.31757 0
-907.381 -6.33473 0
-905.799 -6.34629 0
-904.216 -6.35486 0
-902.633 -6.35776 0
-901.049 -6.35794 0
-899.465 -6.3542 0
-897.879 -6.34724 0
-896.293 -6.33627 0
-894.706 -6.32215 0
-893.118 -6.30532 0
-891.529 -6.28387 0
-889.94 -6.26035 0
-888.349 -6.23387 0
-886.757 -6.20472 0
-885.165 -6.1732 0
-883.57 -6.13946 0
-881.976 -6.10428 0
-880.379 -6.06691 0
-878.782 -6.0268 0
-877.184 -5.98588 0
-875.586 -5.94335 0
-873.985 -5.89947 0
-872.384 -5.85463 0
-870.781 -5.80773 0
-869.177 -5.76161 0
-867.573 -5.71395 0
-865.969 -5.66528 0
-864.363 -5.61585 0
-862.756 -5.56693 0
-861.147 -5.51734 0
-859.539 -5.46836 0
-857.93 -5.41929 0
-856.319 -5.36995 0
-854.707 -5.32065 0
-853.094 -5.27151 0
-851.481 -5.22347 0
-849.868 -5.17585 0
-848.254 -5.12905 0
-846.639 -5.08287 0
-845.023 -5.03704 0
-843.406 -4.99158 0
-841.789 -4.94757 0
-840.171 -4.9048 0
-838.553 -4.86476 0
-836.935 -4.82261 0
-835.314 -4.78443 0
-833.696 -4.74633 0
-832.076 -4.70891 0
-830.456 -4.67261 0
-828.835 -4.63847 0
-827.214 -4.60454 0
-825.592 -4.57267 0
-823.971 -4.54369 0
-822.349 -4.51476 0
-820.726 -4.4874 0
-819.104 -4.46085 0
-817.482 -4.43793 0
-815.86 -4.41445 0
-814.237 -4.39395 0
-812.614 -4.37429 0
-810.992 -4.35588 0
-809.37 -4.34005 0
-807.748 -4.32424 0
-806.125 -4.30973 0
-804.503 -4.2964 0
-802.88 -4.28472 0
-801.258 -4.27566 0
-799.636 -4.26701 0
-798.014 -4.26062 0
-796.391 -4.25402 0
-794.768 -4.24935 0
-793.147 -4.24509 0
-791.524 -4.24464 0
-789.903 -4.2439 0
-788.283 -4.24498 0
-786.661 -4.2461 0
-785.04 -4.24893 0
-783.42 -4.25164 0
-781.8 -4.25621 0
-780.178 -4.26277 0
-778.559 -4.2686 0
-776.941 -4.27427 0
-775.322 -4.28202 0
-773.702 -4.29084 0
-772.083 -4.30106 0
-770.465 -4.31162 0
-768.848 -4.32178 0
-767.23 -4.3331 0
-765.61 -4.3447 0
-763.993 -4.35833 0
-762.377 -4.3718 0
-760.76 -4.38454 0
-759.145 -4.39911 0
-757.528 -4.41288 0
-755.913 -4.42828 0
-754.298 -4.44211 0
-752.682 -4.45601 0
-751.067 -4.47091 0
-749.454 -4.48611 0
-747.84 -4.50125 0
-746.226 -4.51573 0
-744.613 -4.53221 0
-742.999 -4.54731 0
-741.385 -4.56267 0
-739.773 -4.5775 0
-738.159 -4.5935 0
-736.548 -4.6079 0
-734.935 -4.62344 0
-733.323 -4.63814 0
-731.711 -4.65325 0
-730.1 -4.66785 0
-728.488 -4.68158 0
-726.877 -4.69522 0
-725.266 -4.70735 0
-723.655 -4.72168 0
-722.044 -4.73574 0
-720.432 -4.74885 0
-718.821 -4.76104 0
-717.211 -4.77235 0
-715.602 -4.78421 0
-713.993 -4.79495 0
-712.383 -4.80682 0
-710.773 -4.81717 0
-709.164 -4.82651 0
-707.553 -4.83624 0
-705.944 -4.84466 0
-704.333 -4.85283 0
-702.723 -4.86323 0
-701.113 -4.87091 0
-699.503 -4.87786 0
-697.894 -4.88396 0
-696.286 -4.89018 0
-694.675 -4.89637 0
-693.066 -4.90158 0
-691.457 -4.90818 0
-689.847 -4.91377 0
-688.238 -4.91779 0
-686.629 -4.92139 0
-685.019 -4.92435 0
-683.411 -4.92751 0
-681.801 -4.92959 0
-680.19 -4.93241 0
-678.581 -4.93441 0
-676.971 -4.93676 0
-675.362 -4.93569 0
-673.752 -4.93681 0
-672.142 -4.93809 0
-670.532 -4.93745 0
-668.922 -4.93754 0
-667.313 -4.93615 0
-665.703 -4.93681 0
-664.094 -4.93542 0
-662.484 -4.93299 0
-660.874 -4.93252 0
-659.263 -4.92886 0
-657.654 -4.92777 0
-656.043 -4.92538 0
-654.433 -4.92265 0
-652.822 -4.91795 0
-651.212 -4.914 0
-649.602 -4.91216 0
-647.99 -4.90732 0
-646.378 -4.90269 0
-644.767 -4.9002 0
-643.156 -4.89537 0
-641.545 -4.89103 0
-639.933 -4.88715 0
-638.322 -4.88158 0
-636.711 -4.8768 0
-635.101 -4.87136 0
-633.488 -4.86713 0
-631.877 -4.86204 0
-630.264 -4.85559 0
-628.654 -4.85044 0
-627.041 -4.84634 0
-625.43 -4.84083 0
-623.818 -4.83535 0
-622.206 -4.82983 0
-620.594 -4.82442 0
-618.982 -4.81883 0
-617.369 -4.8111 0
-615.756 -4.80722 0
-614.144 -4.80191 0
-612.53 -4.7981 0
-610.917 -4.79332 0
-609.305 -4.78695 0
-607.692 -4.78304 0
-606.08 -4.77924 0
-604.469 -4.77272 0
-602.856 -4.76813 0
-601.243 -4.76248 0
-599.629 -4.75973 0
-598.016 -4.75501 0
-596.402 -4.75048 0
-594.788 -4.74689 0
-593.176 -4.74197 0
-591.563 -4.73947 0
-589.95 -4.73263 0
-588.335 -4.72825 0
-586.722 -4.72519 0
-585.11 -4.72309 0
-583.496 -4.71904 0
-581.882 -4.71415 0
-580.268 -4.7111 0
-578.654 -4.70993 0
-577.041 -4.70782 0
-575.426 -4.70408 0
-573.813 -4.70094 0
-572.201 -4.699 0
-570.588 -4.69587 0
-568.974 -4.694 0
-567.36 -4.69203 0
-565.748 -4.69205 0
-564.134 -4.68938 0
-562.519 -4.68952 0
-560.906 -4.68666 0
-559.295 -4.68545 0
-557.681 -4.6862 0
-556.067 -4.68415 0
-554.453 -4.68251 0
-552.839 -4.68177 0
-551.226 -4.68033 0
-549.612 -4.68197 0
-547.999 -4.68074 0
-546.386 -4.68114 0
-544.772 -4.67927 0
-543.159 -4.68012 0
-541.546 -4.68219 0
-539.934 -4.6828 0
-538.32 -4.68165 0
-536.707 -4.68254 0
-535.095 -4.68474 0
-533.479 -4.68432 0
-531.867 -4.68355 0
-530.255 -4.68749 0
-528.641 -4.68712 0
-527.03 -4.68942 0
-525.416 -4.69085 0
-523.804 -4.69154 0
-522.191 -4.69265 0
-520.579 -4.69194 0
-518.966 -4.69434 0
-517.353 -4.69486 0
-515.74 -4.69689 0
-514.126 -4.69745 0
-512.512 -4.69898 0
-510.9 -4.70066 0
-509.288 -4.7018 0
-507.677 -4.70428 0
-506.064 -4.70671 0
-504.451 -4.70782 0
-502.839 -4.71125 0
-501.227 -4.70942 0
-499.613 -4.71367 0
-498.001 -4.71498 0
-496.39 -4.71732 0
-494.777 -4.71829 0
-493.164 -4.7204 0
-491.551 -4.72073 0
-489.94 -4.72214 0
-488.328 -4.72409 0
-486.717 -4.72613 0
-485.103 -4.73035 0
-483.491 -4.7318 0
-481.88 -4.73334 0
-480.268 -4.73486 0
-478.656 -4.73407 0
-477.043 -4.7366 0
-475.43 -4.73894 0
-473.818 -4.74069 0
-472.206 -4.74229 0
-470.593 -4.74455 0
-468.982 -4.74786 0
-467.369 -4.74946 0
-465.758 -4.75057 0
-464.145 -4.75067 0
-462.533 -4.75136 0
-460.921 -4.75664 0
-459.31 -4.75573 0
-457.698 -4.75758 0
-456.086 -4.7562 0
-454.474 -4.75932 0
-452.863 -4.76192 0
-451.251 -4.76367 0
-449.639 -4.76175 0
-448.026 -4.76332 0
-446.416 -4.76714 0
-444.803 -4.7667 0
-443.19 -4.76518 0
-441.578 -4.76847 0
-439.965 -4.76908 0
-438.355 -4.77141 0
-436.741 -4.77127 0
-435.13 -4.77275 0
-433.518 -4.77249 0
-431.907 -4.77491 0
-430.295 -4.77579 0
-428.683 -4.77415 0
-427.07 -4.77557 0
-425.459 -4.77881 0
-423.848 -4.77737 0
-422.239 -4.77905 0
-420.623 -4.7784 0
-419.011 -4.77977 0
-417.401 -4.78046 0
-415.789 -4.7829 0
-414.178 -4.78035 0
-412.565 -4.7802 0
-410.955 -4.78298 0
-409.343 -4.78257 0
-407.729 -4.78106 0
-406.118 -4.78257 0
-404.508 -4.78177 0
-402.893 -4.7816 0
-401.281 -4.78114 0
-399.67 -4.78073 0
-398.058 -4.78068 0
-396.448 -4.78186 0
-394.834 -4.78227 0
-393.224 -4.78359 0
-391.613 -4.78074 0
-390 -4.77923 0
-388.389 -4.7812 0
-386.778 -4.7797 0
-385.165 -4.78083 0
-383.555 -4.78077 0
-381.942 -4.78052 0
-380.329 -4.78176 0
-378.718 -4.78004 0
-377.104 -4.77822 0
-375.493 -4.78053 0
-373.881 -4.7782 0
-372.27 -4.77715 0
-370.658 -4.7762 0
-369.046 -4.77576 0
-367.434 -4.77595 0
-365.821 -4.7749 0
-364.209 -4.77379 0
-362.598 -4.77505 0
-360.987 -4.7771 0
-359.375 -4.77443 0
-357.763 -4.77277 0
-356.152 -4.77273 0
-354.542 -4.77242 0
-352.929 -4.77256 0
-351.318 -4.77058 0
-349.707 -4.77055 0
-348.094 -4.77172 0
-346.482 -4.77126 0
-344.871 -4.77004 0
-343.259 -4.76984 0
-341.646 -4.76891 0
-340.035 -4.76783 0
-338.424 -4.76864 0
-336.81 -4.76742 0
-335.199 -4.76898 0
-333.588 -4.76697 0
-331.973 -4.76656 0
-330.363 -4.76628 0
-328.752 -4.76449 0
-327.139 -4.7647 0
-325.528 -4.7628 0
-323.915 -4.76391 0
-322.304 -4.76189 0
-320.691 -4.76267 0
-319.079 -4.76248 0
-317.466 -4.76207 0
-315.854 -4.76182 0
-314.242 -4.76038 0
-312.631 -4.76089 0
-311.02 -4.76076 0
-309.409 -4.76206 0
-307.795 -4.75827 0
-306.182 -4.75939 0
-304.572 -4.75861 0
-302.96 -4.75775 0
-301.35 -4.75648 0
-299.737 -4.76013 0
-298.122 -4.76 0
-296.51 -4.75962 0
-294.899 -4.76115 0
-293.288 -4.76028 0
-291.674 -4.76127 0
-290.063 -4.75941 0
-288.452 -4.7581 0
-286.841 -4.75793 0
-285.227 -4.75857 0
-283.617 -4.75941 0
-282.004 -4.76021 0
-280.392 -4.75775 0
-278.782 -4.75896 0
-277.172 -4.75704 0
-275.558 -4.75584 0
-273.947 -4.75539 0
-272.335 -4.75613 0
-270.722 -4.7556 0
-269.111 -4.75651 0
-267.498 -4.75756 0
-265.887 -4.7546 0
-264.274 -4.75839 0
-262.662 -4.75653 0
-261.051 -4.75786 0
-259.437 -4.76178 0
-257.827 -4.75776 0
-256.216 -4.75673 0
-254.602 -4.75818 0
-252.993 -4.75965 0
-251.38 -4.75759 0
-249.768 -4.75707 0
-248.157 -4.75705 0
-246.544 -4.75552 0
-244.933 -4.75895 0
-243.32 -4.75712 0
-241.709 -4.75728 0
-240.098 -4.759 0
-238.487 -4.75992 0
-236.877 -4.76255 0
-235.263 -4.76174 0
-233.65 -4.76077 0
-232.038 -4.76426 0
-230.426 -4.76468 0
-228.814 -4.76413 0
-227.203 -4.76274 0
-225.591 -4.76305 0
-223.98 -4.76458 0
-222.369 -4.76412 0
-220.756 -4.76101 0
-219.145 -4.76407 0
-217.533 -4.76382 0
-215.921 -4.76399 0
-214.309 -4.7645 0
-212.699 -4.76596 0
-211.087 -4.7661 0
-209.475 -4.76485 0
-207.864 -4.76492 0
-206.255 -4.76324 0
-204.644 -4.7621 0
-203.029 -4.76303 0
-201.416 -4.76428 0
-199.806 -4.76265 0
-198.195 -4.76156 0
-196.585 -4.76621 0
-194.971 -4.76632 0
-193.36 -4.76345 0
-191.75 -4.76493 0
-190.138 -4.76448 0
-188.527 -4.76517 0
-186.914 -4.76552 0
-185.302 -4.76572 0
-183.691 -4.76481 0
-182.079 -4.76531 0
-180.469 -4.764 0
-178.859 -4.765 0
-177.248 -4.76272 0
-175.637 -4.7667 0
-174.024 -4.76566 0
-172.414 -4.7641 0
-170.801 -4.76406 0
-169.189 -4.76474 0
-167.577 -4.76402 0
-165.966 -4.76395 0
-164.355 -4.76256 0
-162.744 -4.76305 0
-161.133 -4.76365 0
-159.52 -4.76358 0
-157.907 -4.76379 0
-156.294 -4.76395 0
-154.682 -4.76476 0
-153.072 -4.76424 0
-151.46 -4.76424 0
-149.848 -4.76307 0
-148.236 -4.76332 0
-146.624 -4.76449 0
-145.013 -4.76362 0
-143.402 -4.76272 0
-141.791 -4.76576 0
-140.18 -4.76487 0
-138.569 -4.76358 0
-136.956 -4.76376 0
-135.345 -4.76311 0
-133.735 -4.76458 0
-132.124 -4.7638 0
-130.513 -4.76154 0
-128.901 -4.76205 0
-127.29 -4.76214 0
-125.677 -4.76346 0
-124.067 -4.76428 0
-122.456 -4.76392 0
-120.843 -4.76349 0
-119.23 -4.76508 0
-117.62 -4.7639 0
-116.008 -4.76434 0
-114.397 -4.7641 0
-112.785 -4.76444 0
-111.175 -4.76472 0
-109.565 -4.76368 0
-107.953 -4.76309 0
-106.341 -4.763 0
-104.732 -4.76596 0
-103.12 -4.76607 0
-101.508 -4.76505 0
-99.8964 -4.76441 0
-98.2843 -4.7654 0
-96.6733 -4.76609 0
-95.0634 -4.76379 0
-93.4524 -4.76404 0
-91.8409 -4.76387 0
-90.2272 -4.7643 0
-88.6183 -4.76572 0
-87.0071 -4.76715 0
-85.3975 -4.7664 0
-83.7858 -4.76792 0
-82.174 -4.76651 0
-80.5616 -4.7674 0
-78.9508 -4.76775 0
-77.3382 -4.7687 0
-75.7258 -4.76652 0
-74.1126 -4.76594 0
-72.5031 -4.7661 0
-70.8919 -4.76566 0
-69.2818 -4.76465 0
-67.6703 -4.7643 0
-66.0581 -4.76503 0
-64.4487 -4.76716 0
-62.8366 -4.76782 0
-61.2261 -4.76722 0
-59.6124 -4.7654 0
-58.0017 -4.76569 0
-56.3916 -4.76521 0
-54.7799 -4.76488 0
-53.1688 -4.76626 0
-51.5594 -4.76647 0
-49.946 -4.7646 0
-48.3357 -4.76464 0
-46.7254 -4.76572 0
-45.1138 -4.76625 0
-43.5003 -4.76438 0
-41.888 -4.76609 0
-40.277 -4.76402 0
-38.6677 -4.7658 0
-37.0578 -4.76585 0
-35.4449 -4.76579 0
-33.8344 -4.76547 0
-32.2229 -4.76798 0
-30.6112 -4.76629 0
-28.9999 -4.76636 0
-27.3893 -4.76428 0
-25.7779 -4.76313 0
-24.1677 -4.76311 0
-22.5557 -4.7623 0
-20.9452 -4.7622 0
-19.3336 -4.76317 0
-17.7232 -4.76369 0
-16.1115 -4.76345 0
-14.5031 -4.76384 0
-12.892 -4.76489 0
-11.2781 -4.76232 0
-9.66664 -4.76513 0
-8.05666 -4.76409 0
-6.44512 -4.7644 0
-4.83422 -4.76417 0
-3.22327 -4.76402 0
-1.61243 -4.76456 0
0 -4.7653 0
-1089.58 51.6877 0
-1089.67 45.4023 0
-1089.73 39.3388 0
-1089.74 33.6016 0
-1089.75 28.2194 0
-1089.82 23.1021 0
-1089.85 18.1818 0
-1089.8 13.5536 0
-1089.69 9.30677 0
-1089.56 5.45945 0
-1089.41 2.00507 0
-1089.23 -1.06631 0
-1089.01 -3.76991 0
-1088.76 -6.12547 0
-1088.46 -8.15694 0
-1088.11 -9.89257 0
-1087.71 -11.3605 0
-1087.26 -12.5881 0
-1086.75 -13.6008 0
-1086.18 -14.4228 0
-1085.55 -15.0749 0
-1084.87 -15.5767 0
-1084.14 -15.9454 0
-1083.36 -16.1964 0
-1082.53 -16.3435 0
-1081.66 -16.3985 0
-1080.75 -16.3721 0
-1079.79 -16.2736 0
-1078.8 -16.1113 0
-1077.77 -15.8921 0
-1076.7 -15.6227 0
-1075.61 -15.3089 0
-1074.48 -14.9556 0
-1073.32 -14.5678 0
-1072.14 -14.1488 0
-1070.92 -13.704 0
-1069.68 -13.236 0
-1068.41 -12.7486 0
-1067.12 -12.2447 0
-1065.8 -11.7275 0
-1064.46 -11.1995 0
-1063.09 -10.6641 0
-1061.71 -10.1237 0
-1060.3 -9.58075 0
-1058.87 -9.03741 0
-1057.41 -8.49585 0
-1055.94 -7.95835 0
-1054.45 -7.4267 0
-1052.95 -6.90279 0
-1051.42 -6.38787 0
-1049.89 -5.8837 0
-1048.33 -5.39209 0
-1046.76 -4.91352 0
-1045.18 -4.44933 0
-1043.58 -4.00074 0
-1041.98 -3.56852 0
-1040.36 -3.15332 0
-1038.73 -2.75619 0
-1037.09 -2.3774 0
-1035.45 -2.01705 0
-1033.79 -1.67646 0
-1032.13 -1.3546 0
-1030.46 -1.05268 0
-1028.78 -0.77089 0
-1027.1 -0.50867 0
-1025.42 -0.266444 0
-1023.73 -0.043626 0
-1022.04 0.159196 0
-1020.34 0.342818 0
-1018.64 0.507457 0
-1016.94 0.653091 0
-1015.24 0.780277 0
-1013.54 0.889803 0
-1011.83 0.981285 0
-1010.13 1.05537 0
-1008.42 1.11282 0
-1006.72 1.15432 0
-1005.02 1.18022 0
-1003.32 1.19119 0
-1001.62 1.18787 0
-999.918 1.17076 0
-998.222 1.14041 0
-996.527 1.0977 0
-994.836 1.04336 0
-993.147 0.977526 0
-991.46 0.901655 0
-989.776 0.815242 0
-988.095 0.719832 0
-986.418 0.616179 0
-984.743 0.50468 0
-983.072 0.386068 0
-981.405 0.260972 0
-979.74 0.129859 0
-978.079 -0.00688333 0
-976.422 -0.148013 0
-974.768 -0.293437 0
-973.117 -0.44145 0
-971.47 -0.592779 0
-969.827 -0.746925 0
-968.186 -0.902642 0
-966.549 -1.05964 0
-964.915 -1.21699 0
-963.284 -1.37489 0
-961.656 -1.53164 0
-960.032 -1.68832 0
-958.41 -1.84406 0
-956.791 -1.99834 0
-955.175 -2.15041 0
-953.562 -2.30044 0
-951.95 -2.44808 0
-950.341 -2.59309 0
-948.735 -2.73397 0
-947.131 -2.87192 0
-945.529 -3.00571 0
-943.929 -3.13667 0
-942.33 -3.26245 0
-940.733 -3.38325 0
-939.138 -3.49966 0
-937.544 -3.61187 0
-935.952 -3.71894 0
-934.36 -3.82158 0
-932.77 -3.91895 0
-931.18 -4.01112 0
-929.592 -4.09782 0
-928.004 -4.17973 0
-926.418 -4.25601 0
-924.832 -4.32775 0
-923.246 -4.39356 0
-921.66 -4.45428 0
-920.075 -4.51011 0
-918.49 -4.55971 0
-916.905 -4.60476 0
-915.321 -4.64528 0
-913.736 -4.68012 0
-912.151 -4.71037 0
-910.566 -4.73553 0
-908.981 -4.75729 0
-907.395 -4.77293 0
-905.808 -4.78442 0
-904.221 -4.79232 0
-902.634 -4.79523 0
-901.047 -4.79506 0
-899.458 -4.79008 0
-897.87 -4.78241 0
-896.28 -4.77093 0
-894.69 -4.75574 0
-893.099 -4.73769 0
-891.507 -4.71615 0
-889.915 -4.69146 0
-888.321 -4.66446 0
-886.727 -4.63412 0
-885.132 -4.60162 0
-883.536 -4.56688 0
-881.939 -4.53042 0
-880.341 -4.49197 0
-878.742 -4.4513 0
-877.144 -4.40926 0
-875.543 -4.36566 0
-873.941 -4.32052 0
-872.339 -4.27485 0
-870.736 -4.22783 0
-869.131 -4.18022 0
-867.526 -4.13159 0
-865.921 -4.08221 0
-864.315 -4.03242 0
-862.707 -3.98204 0
-861.099 -3.93189 0
-859.491 -3.88219 0
-857.881 -3.83181 0
-856.27 -3.78175 0
-854.659 -3.73161 0
-853.047 -3.68221 0
-851.434 -3.63367 0
-849.822 -3.58542 0
-848.208 -3.53812 0
-846.593 -3.49069 0
-844.978 -3.44424 0
-843.362 -3.39852 0
-841.747 -3.35427 0
-840.131 -3.3105 0
-838.513 -3.26965 0
-836.896 -3.2277 0
-835.278 -3.18832 0
-833.658 -3.15003 0
-832.039 -3.11194 0
-830.421 -3.07632 0
-828.801 -3.04105 0
-827.182 -3.00755 0
-825.563 -2.97559 0
-823.943 -2.94521 0
-822.322 -2.91662 0
-820.701 -2.88864 0
-819.08 -2.86313 0
-817.459 -2.83891 0
-815.838 -2.81554 0
-814.217 -2.79535 0
-812.596 -2.77552 0
-810.975 -2.75778 0
-809.355 -2.74117 0
-807.733 -2.72526 0
-806.112 -2.71091 0
-804.491 -2.69765 0
-802.87 -2.6857 0
-801.249 -2.67636 0
-799.628 -2.66888 0
-798.007 -2.66205 0
-796.386 -2.65606 0
-794.765 -2.65062 0
-793.144 -2.64718 0
-791.523 -2.64613 0
-789.903 -2.64609 0
-788.283 -2.64742 0
-786.663 -2.64854 0
-785.044 -2.65176 0
-783.424 -2.6551 0
-781.804 -2.65993 0
-780.185 -2.66585 0
-778.567 -2.67207 0
-776.948 -2.6787 0
-775.33 -2.68645 0
-773.711 -2.69571 0
-772.093 -2.70605 0
-770.476 -2.71744 0
-768.859 -2.7275 0
-767.242 -2.73841 0
-765.625 -2.75082 0
-764.007 -2.76473 0
-762.39 -2.77818 0
-760.774 -2.79269 0
-759.158 -2.80595 0
-757.543 -2.81979 0
-755.927 -2.8353 0
-754.312 -2.85002 0
-752.697 -2.86468 0
-751.083 -2.87998 0
-749.469 -2.89519 0
-747.855 -2.91028 0
-746.242 -2.9253 0
-744.628 -2.94081 0
-743.013 -2.95712 0
-741.4 -2.97239 0
-739.787 -2.98804 0
-738.174 -3.00286 0
-736.562 -3.01904 0
-734.949 -3.03477 0
-733.337 -3.0493 0
-731.725 -3.06416 0
-730.113 -3.07892 0
-728.502 -3.09322 0
-726.89 -3.10654 0
-725.279 -3.12021 0
-723.668 -3.13402 0
-722.057 -3.14737 0
-720.445 -3.16023 0
-718.834 -3.17273 0
-717.224 -3.18513 0
-715.614 -3.19696 0
-714.002 -3.20805 0
-712.392 -3.22007 0
-710.783 -3.23067 0
-709.172 -3.23994 0
-707.562 -3.24869 0
-705.952 -3.25736 0
-704.342 -3.26663 0
-702.731 -3.27586 0
-701.121 -3.28303 0
-699.511 -3.29127 0
-697.901 -3.29812 0
-696.292 -3.30398 0
-694.683 -3.30995 0
-693.072 -3.31523 0
-691.462 -3.32178 0
-689.852 -3.32627 0
-688.242 -3.33204 0
-686.632 -3.33506 0
-685.022 -3.33795 0
-683.413 -3.34041 0
-681.803 -3.3425 0
-680.193 -3.34618 0
-678.584 -3.34718 0
-676.973 -3.34903 0
-675.363 -3.34945 0
-673.753 -3.34964 0
-672.142 -3.35046 0
-670.532 -3.35077 0
-668.922 -3.35089 0
-667.313 -3.35077 0
-665.702 -3.34981 0
-664.092 -3.34805 0
-662.483 -3.34593 0
-660.871 -3.34428 0
-659.261 -3.34162 0
-657.65 -3.3405 0
-656.04 -3.33757 0
-654.43 -3.33426 0
-652.819 -3.33078 0
-651.208 -3.32684 0
-649.597 -3.32343 0
-647.985 -3.31915 0
-646.375 -3.31463 0
-644.763 -3.31126 0
-643.152 -3.30619 0
-641.54 -3.30265 0
-639.928 -3.29765 0
-638.317 -3.29404 0
-636.707 -3.28875 0
-635.095 -3.2825 0
-633.484 -3.27739 0
-631.872 -3.27391 0
-630.261 -3.26681 0
-628.648 -3.26175 0
-627.036 -3.2563 0
-625.424 -3.25204 0
-623.813 -3.24665 0
-622.201 -3.24115 0
-620.589 -3.23518 0
-618.977 -3.22947 0
-617.364 -3.22274 0
-615.752 -3.21783 0
-614.139 -3.213 0
-612.525 -3.20862 0
-610.912 -3.2031 0
-609.3 -3.19759 0
-607.688 -3.19306 0
-606.075 -3.1889 0
-604.463 -3.18459 0
-602.851 -3.17882 0
-601.239 -3.17354 0
-599.625 -3.16912 0
-598.011 -3.16422 0
-596.398 -3.15995 0
-594.784 -3.15599 0
-593.171 -3.15203 0
-591.558 -3.14689 0
-589.944 -3.1427 0
-588.331 -3.13901 0
-586.719 -3.13493 0
-585.106 -3.13139 0
-583.493 -3.12888 0
-581.878 -3.12398 0
-580.265 -3.12147 0
-578.651 -3.11881 0
-577.037 -3.11659 0
-575.424 -3.11307 0
-573.811 -3.11084 0
-572.198 -3.10809 0
-570.584 -3.10636 0
-568.971 -3.10392 0
-567.359 -3.10102 0
-565.745 -3.10191 0
-564.132 -3.09878 0
-562.518 -3.09873 0
-560.906 -3.09719 0
-559.293 -3.09572 0
-557.68 -3.0957 0
-556.066 -3.09413 0
-554.453 -3.09336 0
-552.839 -3.09132 0
-551.226 -3.09079 0
-549.613 -3.09103 0
-548 -3.0907 0
-546.387 -3.09047 0
-544.774 -3.08975 0
-543.16 -3.09068 0
-541.548 -3.09149 0
-539.935 -3.09269 0
-538.321 -3.09188 0
-536.708 -3.09209 0
-535.095 -3.0938 0
-533.481 -3.09331 0
-531.869 -3.09518 0
-530.256 -3.09675 0
-528.643 -3.09808 0
-527.03 -3.09973 0
-525.417 -3.10045 0
-523.805 -3.10177 0
-522.191 -3.10358 0
-520.579 -3.10364 0
-518.967 -3.10414 0
-517.354 -3.10508 0
-515.742 -3.10684 0
-514.128 -3.10803 0
-512.515 -3.10889 0
-510.903 -3.11098 0
-509.29 -3.11275 0
-507.678 -3.11466 0
-506.066 -3.11623 0
-504.453 -3.11849 0
-502.84 -3.12105 0
-501.229 -3.1218 0
-499.615 -3.12372 0
-498.002 -3.1259 0
-496.391 -3.12758 0
-494.777 -3.12893 0
-493.166 -3.12979 0
-491.553 -3.13113 0
-489.942 -3.13367 0
-488.331 -3.13663 0
-486.718 -3.13713 0
-485.105 -3.13999 0
-483.493 -3.14373 0
-481.882 -3.14408 0
-480.269 -3.14447 0
-478.658 -3.14577 0
-477.045 -3.14729 0
-475.432 -3.14979 0
-473.82 -3.15102 0
-472.208 -3.15453 0
-470.595 -3.15559 0
-468.982 -3.15783 0
-467.372 -3.16065 0
-465.758 -3.16033 0
-464.147 -3.16104 0
-462.536 -3.16387 0
-460.924 -3.16628 0
-459.311 -3.16638 0
-457.7 -3.16786 0
-456.088 -3.16898 0
-454.477 -3.17002 0
-452.866 -3.17185 0
-451.253 -3.17423 0
-449.64 -3.17307 0
-448.028 -3.17468 0
-446.416 -3.17668 0
-444.803 -3.17746 0
-443.192 -3.17645 0
-441.579 -3.17754 0
-439.967 -3.18052 0
-438.354 -3.18283 0
-436.744 -3.18158 0
-435.131 -3.18304 0
-433.52 -3.18424 0
-431.908 -3.18541 0
-430.295 -3.1859 0
-428.684 -3.18681 0
-427.073 -3.18689 0
-425.46 -3.18924 0
-423.849 -3.189 0
-422.236 -3.18917 0
-420.625 -3.19022 0
-419.014 -3.19 0
-417.403 -3.1924 0
-415.788 -3.1922 0
-414.176 -3.19202 0
-412.566 -3.19284 0
-410.955 -3.19447 0
-409.342 -3.19276 0
-407.73 -3.1924 0
-406.118 -3.19363 0
-404.506 -3.19337 0
-402.894 -3.19283 0
-401.281 -3.19267 0
-399.669 -3.19233 0
-398.059 -3.19346 0
-396.448 -3.19307 0
-394.836 -3.19351 0
-393.222 -3.19274 0
-391.612 -3.19163 0
-390.001 -3.19173 0
-388.39 -3.19196 0
-386.777 -3.19064 0
-385.166 -3.19214 0
-383.554 -3.19036 0
-381.943 -3.19263 0
-380.329 -3.19233 0
-378.717 -3.18947 0
-377.105 -3.18959 0
-375.493 -3.18946 0
-373.881 -3.18932 0
-372.27 -3.18841 0
-370.659 -3.18858 0
-369.047 -3.18724 0
-367.433 -3.18723 0
-365.822 -3.18634 0
-364.21 -3.18648 0
-362.599 -3.18714 0
-360.986 -3.18675 0
-359.375 -3.18575 0
-357.764 -3.18325 0
-356.154 -3.18425 0
-354.541 -3.18391 0
-352.928 -3.18153 0
-351.317 -3.18219 0
-349.705 -3.18155 0
-348.095 -3.18198 0
-346.482 -3.18297 0
-344.87 -3.18109 0
-343.257 -3.18 0
-341.645 -3.179 0
-340.034 -3.17863 0
-338.423 -3.17888 0
-336.811 -3.1785 0
-335.198 -3.1781 0
-333.585 -3.17824 0
-331.974 -3.17758 0
-330.362 -3.17714 0
-328.751 -3.17549 0
-327.14 -3.1751 0
-325.529 -3.17574 0
-323.914 -3.17381 0
-322.303 -3.17336 0
-320.691 -3.17352 0
-319.079 -3.17394 0
-317.466 -3.17201 0
-315.854 -3.17331 0
-314.243 -3.17244 0
-312.631 -3.17241 0
-311.018 -3.17283 0
-309.406 -3.17096 0
-307.795 -3.17 0
-306.183 -3.17113 0
-304.572 -3.16996 0
-302.961 -3.16812 0
-301.349 -3.16873 0
-299.735 -3.16898 0
-298.125 -3.16907 0
-296.511 -3.16968 0
-294.899 -3.17171 0
-293.287 -3.17112 0
-291.674 -3.17021 0
-290.061 -3.16991 0
-288.449 -3.17046 0
-286.839 -3.16982 0
-285.227 -3.16941 0
-283.615 -3.17098 0
-282.003 -3.17047 0
-280.394 -3.17127 0
-278.781 -3.17122 0
-277.17 -3.17006 0
-275.558 -3.16784 0
-273.946 -3.16646 0
-272.333 -3.16775 0
-270.723 -3.16528 0
-269.112 -3.16901 0
-267.499 -3.1698 0
-265.887 -3.16646 0
-264.275 -3.16754 0
-262.664 -3.16765 0
-261.052 -3.16998 0
-259.439 -3.17006 0
-257.826 -3.16803 0
-256.215 -3.16851 0
-254.605 -3.16946 0
-252.992 -3.17031 0
-251.38 -3.16752 0
-249.767 -3.16966 0
-248.156 -3.16783 0
-246.544 -3.1685 0
-244.935 -3.16859 0
-243.322 -3.16935 0
-241.71 -3.16899 0
-240.1 -3.17057 0
-238.488 -3.17108 0
-236.874 -3.17338 0
-235.263 -3.17277 0
-233.653 -3.17207 0
-232.039 -3.17484 0
-230.426 -3.17464 0
-228.813 -3.17428 0
-227.201 -3.1737 0
-225.59 -3.17375 0
-223.981 -3.17554 0
-222.368 -3.17605 0
-220.756 -3.17387 0
-219.146 -3.17528 0
-217.534 -3.17471 0
-215.922 -3.17601 0
-214.31 -3.17593 0
-212.698 -3.17667 0
-211.086 -3.17713 0
-209.475 -3.17601 0
-207.863 -3.17599 0
-206.253 -3.17453 0
-204.641 -3.17372 0
-203.03 -3.17302 0
-201.418 -3.17595 0
-199.807 -3.17338 0
-198.196 -3.17477 0
-196.584 -3.17651 0
-194.972 -3.17702 0
-193.361 -3.17666 0
-191.75 -3.17627 0
-190.138 -3.17591 0
-188.527 -3.17607 0
-186.915 -3.1771 0
-185.304 -3.17668 0
-183.692 -3.17578 0
-182.081 -3.17692 0
-180.468 -3.17733 0
-178.857 -3.17724 0
-177.247 -3.17671 0
-175.635 -3.17699 0
-174.025 -3.17726 0
-172.412 -3.17607 0
-170.799 -3.175 0
-169.189 -3.17649 0
-167.577 -3.17668 0
-165.965 -3.17476 0
-164.356 -3.17528 0
-162.744 -3.17433 0
-161.133 -3.17511 0
-159.52 -3.17456 0
-157.909 -3.17407 0
-156.296 -3.17451 0
-154.683 -3.17517 0
-153.071 -3.1748 0
-151.459 -3.17494 0
-149.847 -3.17551 0
-148.235 -3.17522 0
-146.625 -3.1751 0
-145.013 -3.17509 0
-143.403 -3.17547 0
-141.792 -3.17647 0
-140.179 -3.17495 0
-138.568 -3.17536 0
-136.957 -3.17372 0
-135.345 -3.17534 0
-133.734 -3.17552 0
-132.122 -3.17521 0
-130.511 -3.17453 0
-128.901 -3.17415 0
-127.289 -3.17465 0
-125.678 -3.1745 0
-124.067 -3.17729 0
-122.455 -3.17687 0
-120.843 -3.17499 0
-119.232 -3.17526 0
-117.62 -3.17523 0
-116.008 -3.1761 0
-114.397 -3.17613 0
-112.787 -3.17637 0
-111.174 -3.17587 0
-109.564 -3.17554 0
-107.953 -3.17569 0
-106.342 -3.17571 0
-104.732 -3.17634 0
-103.12 -3.17762 0
-101.508 -3.1766 0
-99.8972 -3.17545 0
-98.2859 -3.17593 0
-96.674 -3.17804 0
-95.0634 -3.17627 0
-93.4508 -3.17578 0
-91.8391 -3.17603 0
-90.2291 -3.17658 0
-88.6187 -3.1767 0
-87.0067 -3.17851 0
-85.3966 -3.17798 0
-83.7861 -3.17841 0
-82.1741 -3.17905 0
-80.5628 -3.17865 0
-78.9496 -3.17829 0
-77.3371 -3.17909 0
-75.7248 -3.17803 0
-74.1139 -3.1778 0
-72.5023 -3.17779 0
-70.8921 -3.178 0
-69.2808 -3.17639 0
-67.6698 -3.17682 0
-66.059 -3.17745 0
-64.448 -3.17938 0
-62.8358 -3.179 0
-61.2252 -3.17837 0
-59.6141 -3.17728 0
-58.0031 -3.17788 0
-56.3925 -3.1759 0
-54.7809 -3.17749 0
-53.1706 -3.17714 0
-51.558 -3.17688 0
-49.9475 -3.17736 0
-48.3366 -3.17682 0
-46.7262 -3.17729 0
-45.1143 -3.17644 0
-43.5013 -3.17545 0
-41.8899 -3.17668 0
-40.2788 -3.17674 0
-38.6678 -3.17698 0
-37.0554 -3.17763 0
-35.4449 -3.17744 0
-33.8344 -3.17745 0
-32.2225 -3.17863 0
-30.6101 -3.17762 0
-28.9982 -3.17873 0
-27.3889 -3.17737 0
-25.7782 -3.17471 0
-24.167 -3.17526 0
-22.5566 -3.17391 0
-20.9458 -3.17458 0
-19.3345 -3.1748 0
-17.7237 -3.17561 0
-16.1124 -3.17586 0
-14.5012 -3.17487 0
-12.889 -3.17612 0
-11.2775 -3.17428 0
-9.6676 -3.17654 0
-8.05512 -3.1758 0
-6.44426 -3.17572 0
-4.83451 -3.17629 0
-3.22261 -3.17748 0
-1.612 -3.1761 0
0 -3.1748 0
-1096.16 52.3668 0
-1095.82 45.8614 0
-1095.61 39.819 0
-1095.37 34.0871 0
-1095.12 28.6408 0
-1094.88 23.4744 0
-1094.6 18.6012 0
-1094.26 14.0291 0
-1093.83 9.79888 0
-1093.34 5.95146 0
-1092.83 2.49565 0
-1092.29 -0.574015 0
-1091.72 -3.27086 0
-1091.13 -5.61386 0
-1090.52 -7.62689 0
-1089.89 -9.33775 0
-1089.22 -10.7755 0
-1088.53 -11.9682 0
-1087.81 -12.9429 0
-1087.05 -13.7251 0
-1086.25 -14.3366 0
-1085.42 -14.7973 0
-1084.56 -15.1262 0
-1083.66 -15.3383 0
-1082.72 -15.4477 0
-1081.76 -15.4663 0
-1080.76 -15.4053 0
-1079.73 -15.2735 0
-1078.67 -15.0791 0
-1077.59 -14.8291 0
-1076.47 -14.5301 0
-1075.33 -14.1877 0
-1074.17 -13.8069 0
-1072.98 -13.3919 0
-1071.76 -12.9471 0
-1070.52 -12.4767 0
-1069.25 -11.9838 0
-1067.97 -11.4725 0
-1066.66 -10.9451 0
-1065.33 -10.405 0
-1063.97 -9.85505 0
-1062.6 -9.29862 0
-1061.21 -8.73745 0
-1059.79 -8.17452 0
-1058.36 -7.61199 0
-1056.91 -7.05204 0
-1055.45 -6.4967 0
-1053.96 -5.94805 0
-1052.46 -5.40825 0
-1050.95 -4.87802 0
-1049.42 -4.35925 0
-1047.88 -3.85378 0
-1046.32 -3.36213 0
-1044.75 -2.88588 0
-1043.17 -2.42595 0
-1041.58 -1.98279 0
-1039.98 -1.55775 0
-1038.36 -1.15109 0
-1036.74 -0.763812 0
-1035.11 -0.395753 0
-1033.48 -0.0477293 0
-1031.83 0.280644 0
-1030.18 0.588547 0
-1028.53 0.875901 0
-1026.86 1.14283 0
-1025.2 1.389 0
-1023.53 1.61559 0
-1021.85 1.82157 0
-1020.17 2.00792 0
-1018.49 2.17458 0
-1016.81 2.32226 0
-1015.13 2.45066 0
-1013.44 2.56075 0
-1011.75 2.65303 0
-1010.06 2.72712 0
-1008.38 2.78456 0
-1006.69 2.82567 0
-1005 2.85061 0
-1003.31 2.86022 0
-1001.62 2.85566 0
-999.939 2.83738 0
-998.255 2.80501 0
-996.572 2.76034 0
-994.891 2.70361 0
-993.212 2.63559 0
-991.535 2.55698 0
-989.861 2.46837 0
-988.189 2.37003 0
-986.519 2.26355 0
-984.852 2.14913 0
-983.187 2.02703 0
-981.526 1.89931 0
-979.867 1.76534 0
-978.211 1.62543 0
-976.557 1.48089 0
-974.907 1.33276 0
-973.26 1.1814 0
-971.615 1.02686 0
-969.974 0.870144 0
-968.334 0.711347 0
-966.698 0.551388 0