<?xml version="1.0"?>
<VTKFile type="StructuredGrid"  version="0.1" byte_order="LittleEndian" compressor="vtkZLibDataCompressor">
  <StructuredGrid WholeExtent="0 700 0 30 0 0">
    <Piece Extent="0 700 0 30 0 0">
      <PointData Vectors="Velocity">
        <DataArray type="Float32" Name="Velocity" NumberOfComponents="3" format="ascii">
-1094.42 92.6343 0
-1094.53 84.2955 0
-1094.7 76.1264 0
-1094.91 68.2288 0
-1095.11 60.6352 0
-1095.28 53.3182 0
-1095.45 46.2447 0
-1095.64 39.4461 0
-1095.85 32.9802 0
-1096.05 26.8729 0
-1096.24 21.1307 0
-1096.41 15.7517 0
-1096.56 10.7318 0
-1096.68 6.06099 0
-1096.76 1.72758 0
-1096.79 -2.2855 0
-1096.78 -5.99366 0
-1096.71 -9.41605 0
-1096.59 -12.571 0
-1096.42 -15.4737 0
-1096.19 -18.1424 0
-1095.91 -20.5921 0
-1095.58 -22.838 0
-1095.19 -24.8906 0
-1094.76 -26.7648 0
-1094.29 -28.4703 0
-1093.77 -30.0187 0
-1093.22 -31.4186 0
-1092.63 -32.6782 0
-1092 -33.804 0
-1091.33 -34.8042 0
-1090.64 -35.6848 0
-1089.91 -36.4522 0
-1089.15 -37.1108 0
-1088.36 -37.6657 0
-1087.55 -38.1213 0
-1086.7 -38.4823 0
-1085.83 -38.753 0
-1084.92 -38.9375 0
-1083.99 -39.0386 0
-1083.04 -39.0618 0
-1082.05 -39.009 0
-1081.04 -38.8859 0
-1080 -38.695 0
-1078.93 -38.4401 0
-1077.84 -38.1256 0
-1076.71 -37.7541 0
-1075.57 -37.3297 0
-1074.39 -36.8543 0
-1073.19 -36.3325 0
-1071.97 -35.7683 0
-1070.72 -35.1649 0
-1069.44 -34.5234 0
-1068.14 -33.8479 0
-1066.82 -33.1417 0
-1065.48 -32.4093 0
-1064.11 -31.6495 0
-1062.72 -30.8685 0
-1061.31 -30.069 0
-1059.87 -29.2503 0
-1058.42 -28.4174 0
-1056.95 -27.5736 0
-1055.46 -26.7174 0
-1053.95 -25.8528 0
-1052.42 -24.983 0
-1050.88 -24.1096 0
-1049.32 -23.2327 0
-1047.74 -22.3565 0
-1046.15 -21.4805 0
-1044.55 -20.6085 0
-1042.93 -19.7401 0
-1041.3 -18.8785 0
-1039.65 -18.0233 0
-1037.99 -17.1771 0
-1036.32 -16.3392 0
-1034.64 -15.5139 0
-1032.95 -14.699 0
-1031.25 -13.8971 0
-1029.54 -13.1086 0
-1027.82 -12.3361 0
-1026.09 -11.5782 0
-1024.36 -10.8372 0
-1022.62 -10.1119 0
-1020.87 -9.40362 0
-1019.11 -8.71515 0
-1017.35 -8.04454 0
-1015.58 -7.39288 0
-1013.81 -6.76123 0
-1012.03 -6.14837 0
-1010.25 -5.55593 0
-1008.47 -4.98518 0
-1006.68 -4.43293 0
-1004.89 -3.90206 0
-1003.09 -3.39306 0
-1001.3 -2.90527 0
-999.496 -2.43722 0
-997.694 -1.99032 0
-995.892 -1.56572 0
-994.088 -1.1628 0
-992.284 -0.779052 0
-990.478 -0.417047 0
-988.673 -0.0757909 0
-986.869 0.244613 0
-985.063 0.54427 0
-983.259 0.82286 0
-981.456 1.08288 0
-979.654 1.3221 0
-977.852 1.54056 0
-976.052 1.74111 0
-974.254 1.92206 0
-972.458 2.0841 0
-970.664 2.22806 0
-968.871 2.35297 0
-967.081 2.46142 0
-965.292 2.55192 0
-963.507 2.62455 0
-961.723 2.68074 0
-959.944 2.72253 0
-958.168 2.74636 0
-956.393 2.75552 0
-954.622 2.74935 0
-952.854 2.72955 0
-951.089 2.69467 0
-949.328 2.64758 0
-947.571 2.58741 0
-945.816 2.51455 0
-944.065 2.42886 0
-942.318 2.33139 0
-940.574 2.22162 0
-938.834 2.10278 0
-937.098 1.97288 0
-935.366 1.83364 0
-933.638 1.68447 0
-931.912 1.52627 0
-930.189 1.36009 0
-928.472 1.18594 0
-926.758 1.00373 0
-925.047 0.816091 0
-923.341 0.621909 0
-921.638 0.420478 0
-919.938 0.213863 0
-918.241 0.00187664 0
-916.549 -0.215209 0
-914.859 -0.435919 0
-913.173 -0.660879 0
-911.492 -0.888739 0
-909.812 -1.12004 0
-908.137 -1.35365 0
-906.465 -1.59038 0
-904.796 -1.82805 0
-903.131 -2.06781 0
-901.467 -2.30928 0
-899.807 -2.55038 0
-898.15 -2.79057 0
-896.497 -3.03307 0
-894.844 -3.27501 0
-893.197 -3.51532 0
-891.549 -3.75605 0
-889.906 -3.9945 0
-888.264 -4.23152 0
-886.626 -4.46775 0
-884.99 -4.70062 0
-883.357 -4.93178 0
-881.726 -5.15916 0
-880.095 -5.38449 0
-878.468 -5.60695 0
-876.841 -5.82701 0
-875.218 -6.04226 0
-873.597 -6.25397 0
-871.975 -6.46128 0
-870.356 -6.66499 0
-868.738 -6.86464 0
-867.123 -7.06017 0
-865.507 -7.25032 0
-863.894 -7.43693 0
-862.283 -7.6175 0
-860.672 -7.79277 0
-859.061 -7.96467 0
-857.453 -8.13162 0
-855.844 -8.29202 0
-854.237 -8.44749 0
-852.63 -8.59769 0
-851.024 -8.74165 0
-849.419 -8.88208 0
-847.813 -9.01534 0
-846.21 -9.14291 0
-844.606 -9.2638 0
-843.002 -9.38148 0
-841.399 -9.49367 0
-839.797 -9.59805 0
-838.193 -9.6981 0
-836.59 -9.79246 0
-834.987 -9.87865 0
-833.384 -9.96235 0
-831.783 -10.0384 0
-830.179 -10.1088 0
-828.575 -10.1761 0
-826.972 -10.2355 0
-825.369 -10.2897 0
-823.765 -10.3383 0
-822.161 -10.3804 0
-820.557 -10.4201 0
-818.951 -10.4541 0
-817.346 -10.4826 0
-815.741 -10.505 0
-814.135 -10.5225 0
-812.528 -10.5367 0
-810.92 -10.5444 0
-809.312 -10.5478 0
-807.704 -10.5464 0
-806.095 -10.5424 0
-804.484 -10.5312 0
-802.874 -10.5174 0
-801.262 -10.4996 0
-799.651 -10.4781 0
-798.039 -10.4501 0
-796.424 -10.4173 0
-794.809 -10.385 0
-793.193 -10.3453 0
-791.576 -10.3034 0
-789.959 -10.2595 0
-788.341 -10.21 0
-786.722 -10.1575 0
-785.102 -10.1032 0
-783.481 -10.0451 0
-781.859 -9.98522 0
-780.235 -9.92139 0
-778.611 -9.85643 0
-776.988 -9.78641 0
-775.363 -9.71368 0
-773.736 -9.63966 0
-772.11 -9.56274 0
-770.481 -9.48654 0
-768.853 -9.40642 0
-767.222 -9.32469 0
-765.592 -9.23983 0
-763.96 -9.15658 0
-762.327 -9.06766 0
-760.693 -8.97892 0
-759.059 -8.89078 0
-757.423 -8.80237 0
-755.786 -8.71135 0
-754.148 -8.61783 0
-752.51 -8.52428 0
-750.873 -8.42898 0
-749.233 -8.33492 0
-747.592 -8.24013 0
-745.952 -8.14457 0
-744.308 -8.04774 0
-742.666 -7.95183 0
-741.023 -7.85532 0
-739.379 -7.75871 0
-737.733 -7.6631 0
-736.087 -7.56893 0
-734.44 -7.47166 0
-732.792 -7.37625 0
-731.145 -7.28024 0
-729.498 -7.18593 0
-727.848 -7.09165 0
-726.198 -6.99898 0
-724.548 -6.9049 0
-722.897 -6.81081 0
-721.245 -6.72079 0
-719.593 -6.62744 0
-717.94 -6.53857 0
-716.288 -6.45185 0
-714.637 -6.36093 0
-712.981 -6.27295 0
-711.326 -6.18685 0
-709.672 -6.10308 0
-708.017 -6.01794 0
-706.361 -5.93651 0
-704.704 -5.85604 0
-703.047 -5.77811 0
-701.391 -5.69952 0
-699.733 -5.62269 0
-698.077 -5.54841 0
-696.42 -5.47452 0
-694.762 -5.40004 0
-693.105 -5.32967 0
-691.445 -5.26228 0
-689.786 -5.19515 0
-688.128 -5.12942 0
-686.467 -5.06637 0
-684.808 -5.00386 0
-683.149 -4.94262 0
-681.489 -4.88461 0
-679.83 -4.82494 0
-678.172 -4.76929 0
-676.512 -4.71667 0
-674.851 -4.66353 0
-673.191 -4.61247 0
-671.53 -4.56604 0
-669.871 -4.5191 0
-668.209 -4.4753 0
-666.551 -4.43315 0
-664.891 -4.39069 0
-663.231 -4.35325 0
-661.573 -4.31393 0
-659.916 -4.27771 0
-658.255 -4.24363 0
-656.593 -4.21027 0
-654.935 -4.17843 0
-653.276 -4.14751 0
-651.615 -4.12442 0
-649.956 -4.09916 0
-648.299 -4.07447 0
-646.638 -4.0496 0
-644.979 -4.02932 0
-643.321 -4.00933 0
-641.661 -3.99257 0
-640.003 -3.97439 0
-638.346 -3.96226 0
-636.688 -3.9486 0
-635.031 -3.93412 0
-633.372 -3.924 0
-631.715 -3.91275 0
-630.057 -3.90868 0
-628.4 -3.90139 0
-626.743 -3.8954 0
-625.088 -3.89124 0
-623.43 -3.89002 0
-621.774 -3.89096 0
-620.119 -3.8901 0
-618.463 -3.89234 0
-616.808 -3.89471 0
-615.151 -3.89849 0
-613.496 -3.90339 0
-611.843 -3.90732 0
-610.19 -3.91241 0
-608.534 -3.92282 0
-606.878 -3.92931 0
-605.226 -3.94004 0
-603.57 -3.94958 0
-601.92 -3.96198 0
-600.264 -3.97514 0
-598.612 -3.98723 0
-596.961 -4.00118 0
-595.308 -4.01573 0
-593.654 -4.03166 0
-592.001 -4.05017 0
-590.35 -4.06662 0
-588.701 -4.0831 0
-587.051 -4.10091 0
-585.401 -4.11767 0
-583.751 -4.1376 0
-582.101 -4.15611 0
-580.449 -4.1802 0
-578.8 -4.2012 0
-577.151 -4.22429 0
-575.499 -4.24726 0
-573.851 -4.26714 0
-572.202 -4.28974 0
-570.554 -4.31173 0
-568.905 -4.33379 0
-567.258 -4.35538 0
-565.612 -4.3795 0
-563.963 -4.40016 0
-562.315 -4.42529 0
-560.668 -4.4499 0
-559.021 -4.47493 0
-557.371 -4.49916 0
-555.725 -4.52327 0
-554.078 -4.54881 0
-552.433 -4.57129 0
-550.788 -4.59498 0
-549.142 -4.62085 0
-547.496 -4.64631 0
-545.849 -4.6686 0
-544.204 -4.69469 0
-542.56 -4.71695 0
-540.914 -4.73968 0
-539.269 -4.76593 0
-537.624 -4.78953 0
-535.982 -4.81178 0
-534.338 -4.83588 0
-532.692 -4.86018 0
-531.048 -4.88446 0
-529.403 -4.90441 0
-527.761 -4.92827 0
-526.116 -4.9522 0
-524.472 -4.97236 0
-522.829 -4.99404 0
-521.185 -5.01588 0
-519.544 -5.036 0
-517.899 -5.05629 0
-516.258 -5.0751 0
-514.616 -5.09703 0
-512.973 -5.11507 0
-511.329 -5.13565 0
-509.687 -5.15589 0
-508.045 -5.17269 0
-506.402 -5.18988 0
-504.759 -5.21073 0
-503.117 -5.22784 0
-501.475 -5.24442 0
-499.832 -5.26063 0
-498.188 -5.27476 0
-496.545 -5.29145 0
-494.905 -5.30654 0
-493.263 -5.32336 0
-491.619 -5.33621 0
-489.977 -5.34873 0
-488.334 -5.3654 0
-486.691 -5.37719 0
-485.052 -5.39035 0
-483.412 -5.40335 0
-481.768 -5.41529 0
-480.126 -5.42857 0
-478.484 -5.43905 0
-476.842 -5.45052 0
-475.201 -5.46133 0
-473.559 -5.47063 0
-471.917 -5.47751 0
-470.276 -5.48857 0
-468.634 -5.49568 0
-466.988 -5.50297 0
-465.349 -5.51186 0
-463.704 -5.51887 0
-462.063 -5.52695 0
-460.422 -5.5355 0
-458.778 -5.54315 0
-457.137 -5.54963 0
-455.494 -5.55904 0
-453.85 -5.56163 0
-452.207 -5.566 0
-450.565 -5.57109 0
-448.921 -5.57436 0
-447.28 -5.57978 0
-445.637 -5.58308 0
-443.994 -5.58358 0
-442.351 -5.58974 0
-440.706 -5.5931 0
-439.065 -5.59654 0
-437.421 -5.59736 0
-435.78 -5.597 0
-434.138 -5.60162 0
-432.496 -5.60123 0
-430.852 -5.60282 0
-429.206 -5.60501 0
-427.566 -5.60931 0
-425.924 -5.60781 0
-424.281 -5.6043 0
-422.639 -5.60549 0
-420.994 -5.60709 0
-419.349 -5.60663 0
-417.708 -5.60637 0
-416.065 -5.60327 0
-414.419 -5.60202 0
-412.775 -5.60367 0
-411.131 -5.60444 0
-409.49 -5.60203 0
-407.844 -5.59733 0
-406.199 -5.59508 0
-404.556 -5.59263 0
-402.913 -5.59303 0
-401.27 -5.58787 0
-399.626 -5.58666 0
-397.983 -5.58454 0
-396.338 -5.58278 0
-394.692 -5.57845 0
-393.045 -5.57752 0
-391.403 -5.57708 0
-389.757 -5.57227 0
-388.111 -5.56943 0
-386.463 -5.56856 0
-384.818 -5.56479 0
-383.175 -5.56159 0
-381.53 -5.56107 0
-379.886 -5.55682 0
-378.241 -5.55473 0
-376.591 -5.54891 0
-374.949 -5.54975 0
-373.304 -5.54648 0
-371.657 -5.53936 0
-370.012 -5.53589 0
-368.365 -5.53325 0
-366.718 -5.53277 0
-365.072 -5.5298 0
-363.428 -5.5288 0
-361.783 -5.52598 0
-360.139 -5.52441 0
-358.495 -5.52057 0
-356.847 -5.51711 0
-355.201 -5.51454 0
-353.555 -5.50945 0
-351.912 -5.50832 0
-350.267 -5.50964 0
-348.62 -5.5077 0
-346.974 -5.50544 0
-345.331 -5.50222 0
-343.685 -5.50037 0
-342.036 -5.49961 0
-340.392 -5.49825 0
-338.746 -5.50006 0
-337.098 -5.49726 0
-335.453 -5.49741 0
-333.807 -5.49817 0
-332.16 -5.49383 0
-330.513 -5.49299 0
-328.866 -5.49632 0
-327.224 -5.49747 0
-325.577 -5.49834 0
-323.931 -5.49366 0
-322.284 -5.49621 0
-320.634 -5.4964 0
-318.99 -5.49733 0
-317.345 -5.49656 0
-315.698 -5.49875 0
-314.052 -5.50162 0
-312.404 -5.502 0
-310.759 -5.50695 0
-309.112 -5.50644 0
-307.468 -5.50273 0
-305.823 -5.51056 0
-304.176 -5.51147 0
-302.529 -5.51427 0
-300.884 -5.51779 0
-299.235 -5.52288 0
-297.59 -5.52725 0
-295.943 -5.52669 0
-294.299 -5.53032 0
-292.656 -5.5338 0
-291.01 -5.53612 0
-289.363 -5.54277 0
-287.717 -5.53898 0
-286.067 -5.542 0
-284.421 -5.55009 0
-282.776 -5.55648 0
-281.131 -5.55968 0
-279.484 -5.56191 0
-277.837 -5.56545 0
-276.19 -5.57206 0
-274.547 -5.57402 0
-272.901 -5.5856 0
-271.256 -5.58693 0
-269.607 -5.5923 0
-267.962 -5.59418 0
-266.314 -5.59945 0
-264.668 -5.6063 0
-263.024 -5.61086 0
-261.378 -5.61759 0
-259.734 -5.62496 0
-258.09 -5.62974 0
-256.448 -5.63497 0
-254.801 -5.64248 0
-253.155 -5.64755 0
-251.503 -5.6539 0
-249.858 -5.65993 0
-248.211 -5.66638 0
-246.567 -5.6745 0
-244.923 -5.68144 0
-243.28 -5.68938 0
-241.637 -5.69811 0
-239.988 -5.70862 0
-238.34 -5.71661 0
-236.692 -5.71899 0
-235.049 -5.73148 0
-233.403 -5.73642 0
-231.761 -5.743 0
-230.117 -5.74958 0
-228.471 -5.76207 0
-226.824 -5.76914 0
-225.18 -5.77925 0
-223.532 -5.78643 0
-221.889 -5.79483 0
-220.243 -5.80128 0
-218.597 -5.80893 0
-216.953 -5.82041 0
-215.309 -5.8241 0
-213.665 -5.83158 0
-212.022 -5.84038 0
-210.375 -5.84978 0
-208.727 -5.86519 0
-207.084 -5.87244 0
-205.438 -5.88155 0
-203.793 -5.89176 0
-202.147 -5.89765 0
-200.507 -5.90451 0
-198.864 -5.9164 0
-197.221 -5.92385 0
-195.577 -5.93385 0
-193.93 -5.93889 0
-192.284 -5.95192 0
-190.638 -5.95829 0
-188.996 -5.96875 0
-187.349 -5.97588 0
-185.706 -5.98171 0
-184.063 -5.99261 0
-182.418 -6.00209 0
-180.774 -6.01231 0
-179.13 -6.02227 0
-177.488 -6.02953 0
-175.845 -6.03557 0
-174.199 -6.04542 0
-172.554 -6.05459 0
-170.911 -6.06164 0
-169.268 -6.07264 0
-167.621 -6.07639 0
-165.977 -6.08564 0
-164.328 -6.0976 0
-162.683 -6.10815 0
-161.04 -6.11792 0
-159.396 -6.12453 0
-157.756 -6.13039 0
-156.109 -6.13893 0
-154.467 -6.14759 0
-152.823 -6.15354 0
-151.18 -6.16285 0
-149.535 -6.16945 0
-147.891 -6.17914 0
-146.247 -6.18904 0
-144.599 -6.19751 0
-142.954 -6.20413 0
-141.308 -6.20935 0
-139.663 -6.2195 0
-138.022 -6.22749 0
-136.381 -6.23484 0
-134.737 -6.24064 0
-133.091 -6.24787 0
-131.45 -6.25757 0
-129.806 -6.26596 0
-128.161 -6.27504 0
-126.52 -6.27964 0
-124.877 -6.28914 0
-123.235 -6.29844 0
-121.59 -6.30494 0
-119.948 -6.31171 0
-118.303 -6.31679 0
-116.661 -6.33216 0
-115.017 -6.33609 0
-113.375 -6.3433 0
-111.731 -6.34964 0
-110.084 -6.35856 0
-108.442 -6.36501 0
-106.799 -6.37034 0
-105.155 -6.37467 0
-103.513 -6.37646 0
-101.869 -6.3867 0
-100.228 -6.39271 0
-98.5851 -6.39734 0
-96.9413 -6.40562 0
-95.2995 -6.41233 0
-93.6591 -6.41849 0
-92.0163 -6.42365 0
-90.3702 -6.42957 0
-88.7271 -6.43899 0
-87.0819 -6.44372 0
-85.4386 -6.44637 0
-83.7957 -6.45532 0
-82.1556 -6.4592 0
-80.5124 -6.46259 0
-78.8693 -6.47127 0
-77.2299 -6.47149 0
-75.584 -6.47454 0
-73.9407 -6.48335 0
-72.2985 -6.48537 0
-70.6489 -6.48821 0
-69.0102 -6.49028 0
-67.3681 -6.49191 0
-65.7288 -6.49839 0
-64.0834 -6.50273 0
-62.4401 -6.50622 0
-60.7934 -6.51203 0
-59.1499 -6.51518 0
-57.5094 -6.51754 0
-55.8673 -6.52486 0
-54.2225 -6.52276 0
-52.5809 -6.52579 0
-50.9414 -6.52789 0
-49.2943 -6.5308 0
-47.6496 -6.53637 0
-46.0093 -6.53775 0
-44.3633 -6.54277 0
-42.7246 -6.54284 0
-41.0795 -6.54632 0
-39.4367 -6.54864 0
-37.7901 -6.55028 0
-36.1481 -6.55276 0
-34.5058 -6.55349 0
-32.8608 -6.55713 0
-31.2155 -6.55948 0
-29.5746 -6.56488 0
-27.9279 -6.56264 0
-26.2885 -6.56795 0
-24.6443 -6.56855 0
-23.003 -6.56974 0
-21.361 -6.57094 0
-19.7178 -6.56923 0
-18.0734 -6.57375 0
-16.4299 -6.57193 0
-14.7879 -6.57475 0
-13.1434 -6.57951 0
-11.5004 -6.57869 0
-9.85891 -6.57773 0
-8.21555 -6.57645 0
-6.57353 -6.57824 0
-4.93073 -6.57516 0
-3.28709 -6.57587 0
-1.64212 -6.57816 0
0 -6.57342 0
-1102.77 92.7841 0
-1102.73 84.397 0
-1102.69 76.2119 0
-1102.61 68.3074 0
-1102.53 60.7077 0
-1102.47 53.3859 0
-1102.41 46.311 0
-1102.31 39.513 0
-1102.17 33.0478 0
-1102.01 26.9441 0
-1101.84 21.2081 0
-1101.65 15.8398 0
-1101.45 10.8348 0
-1101.22 6.1856 0
-1100.97 1.87886 0
-1100.69 -2.10156 0
-1100.37 -5.77284 0
-1100.03 -9.15607 0
-1099.65 -12.2695 0
-1099.23 -15.1295 0
-1098.77 -17.7554 0
-1098.27 -20.163 0
-1097.74 -22.3674 0
-1097.17 -24.381 0
-1096.56 -26.2174 0
-1095.93 -27.8861 0
-1095.26 -29.4001 0
-1094.56 -30.7667 0
-1093.82 -31.9947 0
-1093.06 -33.0905 0
-1092.28 -34.0612 0
-1091.47 -34.9144 0
-1090.63 -35.6537 0
-1089.76 -36.2855 0
-1088.87 -36.8141 0
-1087.96 -37.2442 0
-1087.02 -37.5789 0
-1086.06 -37.8237 0
-1085.07 -37.9825 0
-1084.06 -38.0586 0
-1083.03 -38.0556 0
-1081.97 -37.9777 0
-1080.89 -37.8286 0
-1079.78 -37.6125 0
-1078.65 -37.333 0
-1077.5 -36.9927 0
-1076.32 -36.5967 0
-1075.12 -36.1472 0
-1073.9 -35.6486 0
-1072.66 -35.1032 0
-1071.39 -34.5154 0
-1070.1 -33.8878 0
-1068.79 -33.2238 0
-1067.46 -32.526 0
-1066.11 -31.7989 0
-1064.73 -31.0434 0
-1063.34 -30.2638 0
-1061.93 -29.4629 0
-1060.5 -28.6427 0
-1059.05 -27.8059 0
-1057.59 -26.9546 0
-1056.11 -26.0914 0
-1054.61 -25.2179 0
-1053.09 -24.3361 0
-1051.56 -23.4493 0
-1050.01 -22.5602 0
-1048.45 -21.669 0
-1046.87 -20.778 0
-1045.29 -19.8877 0
-1043.68 -19.0022 0
-1042.07 -18.121 0
-1040.44 -17.2472 0
-1038.81 -16.3804 0
-1037.16 -15.5219 0
-1035.5 -14.6739 0
-1033.83 -13.838 0
-1032.15 -13.0143 0
-1030.46 -12.203 0
-1028.77 -11.4062 0
-1027.06 -10.6245 0
-1025.35 -9.85927 0
-1023.63 -9.11118 0
-1021.91 -8.37899 0
-1020.17 -7.66521 0
-1018.44 -6.97005 0
-1016.69 -6.29401 0
-1014.95 -5.63687 0
-1013.19 -5.00019 0
-1011.44 -4.384 0
-1009.67 -3.78783 0
-1007.91 -3.21243 0
-1006.14 -2.65811 0
-1004.37 -2.12419 0
-1002.6 -1.61213 0
-1000.82 -1.12196 0
-999.042 -0.652723 0
-997.262 -0.204307 0
-995.481 0.221517 0
-993.699 0.625781 0
-991.915 1.01038 0
-990.13 1.3721 0
-988.346 1.71318 0
-986.561 2.03416 0
-984.777 2.33335 0
-982.993 2.61147 0
-981.209 2.87009 0
-979.426 3.10865 0
-977.644 3.32726 0
-975.864 3.52519 0
-974.085 3.70477 0
-972.307 3.86439 0
-970.531 4.00698 0
-968.756 4.13056 0
-966.982 4.23665 0
-965.211 4.32453 0
-963.443 4.39508 0
-961.676 4.44879 0
-959.913 4.48707 0
-958.151 4.50861 0
-956.392 4.51523 0
-954.636 4.50632 0
-952.882 4.48273 0
-951.131 4.44563 0
-949.382 4.39519 0
-947.638 4.33201 0
-945.896 4.25518 0
-944.157 4.16674 0
-942.421 4.06557 0
-940.688 3.95318 0
-938.959 3.82973 0
-937.233 3.69678 0
-935.509 3.55379 0
-933.79 3.40118 0
-932.074 3.24056 0
-930.36 3.07061 0
-928.649 2.89301 0
-926.942 2.70746 0
-925.238 2.51624 0
-923.538 2.3184 0
-921.84 2.11389 0
-920.146 1.90417 0
-918.455 1.68888 0
-916.767 1.46875 0
-915.082 1.24379 0
-913.4 1.01639 0
-911.721 0.784631 0
-910.045 0.551147 0
-908.372 0.313796 0
-906.702 0.0743857 0
-905.034 -0.166679 0
-903.37 -0.408922 0
-901.708 -0.653166 0
-900.048 -0.896509 0
-898.391 -1.14028 0
-896.736 -1.38496 0
-895.085 -1.62958 0
-893.436 -1.8727 0
-891.788 -2.11489 0
-890.143 -2.3559 0
-888.5 -2.59568 0
-886.86 -2.83389 0
-885.221 -3.06929 0
-883.585 -3.30231 0
-881.951 -3.53225 0
-880.318 -3.75874 0
-878.687 -3.98377 0
-877.058 -4.20411 0
-875.43 -4.422 0
-873.804 -4.63608 0
-872.18 -4.84484 0
-870.558 -5.04995 0
-868.935 -5.25133 0
-867.315 -5.44735 0
-865.696 -5.63931 0
-864.077 -5.8268 0
-862.461 -6.00779 0
-860.844 -6.1854 0
-859.229 -6.35775 0
-857.615 -6.52508 0
-856.002 -6.68626 0
-854.389 -6.84311 0
-852.777 -6.99395 0
-851.166 -7.13943 0
-849.554 -7.27852 0
-847.943 -7.41256 0
-846.334 -7.54159 0
-844.724 -7.66303 0
-843.116 -7.78056 0
-841.507 -7.8924 0
-839.898 -7.99706 0
-838.29 -8.0971 0
-836.681 -8.19075 0
-835.072 -8.27894 0
-833.464 -8.36162 0
-831.855 -8.43787 0
-830.246 -8.50877 0
-828.638 -8.5748 0
-827.03 -8.63478 0
-825.421 -8.6886 0
-823.812 -8.73618 0
-822.202 -8.78029 0
-820.593 -8.8175 0
-818.983 -8.85175 0
-817.372 -8.87939 0
-815.761 -8.90206 0
-814.151 -8.91952 0
-812.539 -8.93219 0
-810.926 -8.93904 0
-809.314 -8.94215 0
-807.7 -8.94041 0
-806.087 -8.93415 0
-804.472 -8.9248 0
-802.856 -8.9097 0
-801.241 -8.89092 0
-799.625 -8.86827 0
-798.008 -8.83988 0
-796.391 -8.80701 0
-794.772 -8.77205 0
-793.152 -8.73224 0
-791.533 -8.69155 0
-789.911 -8.64473 0
-788.291 -8.59523 0
-786.669 -8.54157 0
-785.045 -8.48582 0
-783.421 -8.4283 0
-781.796 -8.36682 0
-780.171 -8.30358 0
-778.545 -8.23565 0
-776.918 -8.16539 0
-775.291 -8.09181 0
-773.662 -8.01698 0
-772.033 -7.94008 0
-770.403 -7.8613 0
-768.772 -7.781 0
-767.14 -7.69844 0
-765.508 -7.61322 0
-763.874 -7.52723 0
-762.24 -7.43986 0
-760.605 -7.34993 0
-758.969 -7.26114 0
-757.333 -7.17076 0
-755.695 -7.07921 0
-754.057 -6.98437 0
-752.418 -6.89109 0
-750.779 -6.79618 0
-749.138 -6.70032 0
-747.497 -6.60436 0
-745.855 -6.50827 0
-744.212 -6.41062 0
-742.57 -6.31382 0
-740.926 -6.21651 0
-739.281 -6.11904 0
-737.638 -6.02374 0
-735.992 -5.927 0
-734.346 -5.83037 0
-732.698 -5.73394 0
-731.051 -5.63842 0
-729.403 -5.54292 0
-727.755 -5.44832 0
-726.105 -5.35362 0
-724.454 -5.25982 0
-722.805 -5.16708 0
-721.154 -5.07348 0
-719.503 -4.98171 0
-717.853 -4.8927 0
-716.201 -4.80356 0
-714.547 -4.71314 0
-712.895 -4.62459 0
-711.242 -4.53882 0
-709.588 -4.45417 0
-707.935 -4.36872 0
-706.28 -4.28597 0
-704.625 -4.20529 0
-702.97 -4.12635 0
-701.314 -4.04829 0
-699.659 -3.97131 0
-698.003 -3.89665 0
-696.347 -3.82167 0
-694.691 -3.7489 0
-693.034 -3.67712 0
-691.377 -3.60937 0
-689.72 -3.54176 0
-688.062 -3.47612 0
-686.405 -3.41329 0
-684.748 -3.35045 0
-683.09 -3.28942 0
-681.432 -3.23015 0
-679.774 -3.17185 0
-678.116 -3.11663 0
-676.459 -3.06215 0
-674.801 -3.00924 0
-673.143 -2.95925 0
-671.484 -2.91169 0
-669.827 -2.86497 0
-668.167 -2.82169 0
-666.51 -2.77932 0
-664.853 -2.73793 0
-663.196 -2.69934 0
-661.538 -2.66084 0
-659.879 -2.62335 0
-658.221 -2.58885 0
-656.564 -2.55593 0
-654.904 -2.52403 0
-653.247 -2.49595 0
-651.59 -2.47024 0
-649.932 -2.44458 0
-648.273 -2.42052 0
-646.616 -2.39654 0
-644.958 -2.37565 0
-643.301 -2.35649 0
-641.644 -2.33906 0
-639.986 -2.32295 0
-638.331 -2.3082 0
-636.674 -2.29635 0
-635.018 -2.28178 0
-633.362 -2.27187 0
-631.707 -2.26052 0
-630.051 -2.25598 0
-628.395 -2.24854 0
-626.74 -2.24371 0
-625.084 -2.2401 0
-623.43 -2.24032 0
-621.775 -2.23987 0
-620.121 -2.24143 0
-618.466 -2.24199 0
-616.811 -2.24505 0
-615.156 -2.24915 0
-613.502 -2.25345 0
-611.848 -2.25891 0
-610.195 -2.2643 0
-608.541 -2.2732 0
-606.887 -2.28183 0
-605.236 -2.29041 0
-603.584 -2.30205 0
-601.931 -2.31424 0
-600.278 -2.32771 0
-598.626 -2.34002 0
-596.974 -2.35409 0
-595.322 -2.3698 0
-593.671 -2.38518 0
-592.02 -2.40319 0
-590.369 -2.42101 0
-588.719 -2.43839 0
-587.068 -2.45556 0
-585.419 -2.47337 0
-583.769 -2.49404 0
-582.119 -2.51348 0
-580.47 -2.53508 0
-578.82 -2.55755 0
-577.173 -2.58053 0
-575.523 -2.60088 0
-573.872 -2.62333 0
-572.225 -2.64718 0
-570.576 -2.66804 0
-568.928 -2.69097 0
-567.28 -2.71378 0
-565.633 -2.73505 0
-563.985 -2.75851 0
-562.339 -2.78389 0
-560.693 -2.80802 0
-559.045 -2.83164 0
-557.398 -2.85705 0
-555.751 -2.88191 0
-554.103 -2.90694 0
-552.457 -2.93183 0
-550.812 -2.95542 0
-549.166 -2.98099 0
-547.52 -3.003 0
-545.874 -3.02756 0
-544.228 -3.05298 0
-542.585 -3.07686 0
-540.94 -3.10047 0
-539.294 -3.12371 0
-537.649 -3.14955 0
-536.005 -3.1733 0
-534.36 -3.19594 0
-532.716 -3.21964 0
-531.07 -3.24401 0
-529.427 -3.26761 0
-527.782 -3.28631 0
-526.138 -3.31269 0
-524.494 -3.33337 0
-522.851 -3.35634 0
-521.206 -3.37656 0
-519.565 -3.39739 0
-517.922 -3.41647 0
-516.278 -3.43804 0
-514.635 -3.45956 0
-512.991 -3.47786 0
-511.35 -3.49669 0
-509.706 -3.51789 0
-508.064 -3.53427 0
-506.42 -3.55323 0
-504.777 -3.57055 0
-503.134 -3.5895 0
-501.491 -3.60667 0
-499.847 -3.6224 0
-498.205 -3.63894 0
-496.561 -3.65398 0
-494.919 -3.66993 0
-493.276 -3.68501 0
-491.635 -3.69827 0
-489.991 -3.71358 0
-488.349 -3.72667 0
-486.707 -3.7407 0
-485.066 -3.75371 0
-483.425 -3.76612 0
-481.783 -3.77809 0
-480.139 -3.79111 0
-478.495 -3.80299 0
-476.852 -3.81431 0
-475.212 -3.82277 0
-473.568 -3.83273 0
-471.926 -3.84184 0
-470.282 -3.85036 0
-468.642 -3.85663 0
-466.997 -3.86463 0
-465.356 -3.87358 0
-463.713 -3.88204 0
-462.069 -3.88883 0
-460.427 -3.89968 0
-458.785 -3.9033 0
-457.141 -3.91349 0
-455.497 -3.92 0
-453.855 -3.92293 0
-452.213 -3.92854 0
-450.569 -3.93289 0
-448.926 -3.93637 0
-447.283 -3.94405 0
-445.639 -3.94391 0
-443.997 -3.94547 0
-442.354 -3.95107 0
-440.712 -3.95374 0
-439.066 -3.95789 0
-437.425 -3.95838 0
-435.782 -3.96102 0
-434.14 -3.9612 0
-432.497 -3.9644 0
-430.854 -3.96517 0
-429.21 -3.96672 0
-427.568 -3.96961 0
-425.924 -3.96885 0
-424.28 -3.9677 0
-422.636 -3.96815 0
-420.994 -3.96891 0
-419.349 -3.9701 0
-417.707 -3.9674 0
-416.063 -3.96602 0
-414.42 -3.96369 0
-412.775 -3.96312 0
-411.13 -3.96458 0
-409.484 -3.96204 0
-407.841 -3.95923 0
-406.198 -3.95655 0
-404.554 -3.95348 0
-402.911 -3.95317 0
-401.267 -3.9519 0
-399.623 -3.94723 0
-397.978 -3.94326 0
-396.334 -3.94298 0
-394.688 -3.93872 0
-393.044 -3.93767 0
-391.398 -3.93602 0
-389.751 -3.9313 0
-388.109 -3.92897 0
-386.462 -3.92723 0
-384.815 -3.92631 0
-383.171 -3.92269 0
-381.526 -3.91988 0
-379.881 -3.91588 0
-378.236 -3.9123 0
-376.591 -3.90958 0
-374.945 -3.90856 0
-373.299 -3.90502 0
-371.655 -3.90172 0
-370.011 -3.89601 0
-368.365 -3.89355 0
-366.718 -3.89143 0
-365.073 -3.8897 0
-363.427 -3.88707 0
-361.781 -3.88646 0
-360.136 -3.88323 0
-358.49 -3.87843 0
-356.846 -3.87505 0
-355.199 -3.87324 0
-353.555 -3.87154 0
-351.912 -3.87084 0
-350.267 -3.87027 0
-348.619 -3.86638 0
-346.972 -3.86482 0
-345.327 -3.86302 0
-343.68 -3.8592 0
-342.035 -3.85654 0
-340.389 -3.858 0
-338.746 -3.85795 0
-337.1 -3.85651 0
-335.453 -3.8563 0
-333.805 -3.85598 0
-332.159 -3.85327 0
-330.513 -3.85314 0
-328.869 -3.85609 0
-327.224 -3.85664 0
-325.577 -3.85471 0
-323.929 -3.85246 0
-322.281 -3.85337 0
-320.636 -3.85644 0
-318.989 -3.85519 0
-317.343 -3.85626 0
-315.699 -3.85867 0
-314.051 -3.85924 0
-312.407 -3.86185 0
-310.762 -3.86489 0
-309.113 -3.8638 0
-307.468 -3.86635 0
-305.823 -3.86832 0
-304.178 -3.87004 0
-302.531 -3.87441 0
-300.886 -3.87577 0
-299.237 -3.88046 0
-297.591 -3.88414 0
-295.947 -3.88672 0
-294.302 -3.88939 0
-292.656 -3.89255 0
-291.011 -3.89688 0
-289.363 -3.89998 0
-287.717 -3.89882 0
-286.072 -3.90181 0
-284.427 -3.90842 0
-282.78 -3.91499 0
-281.135 -3.917 0
-279.491 -3.92207 0
-277.844 -3.92383 0
-276.198 -3.92849 0
-274.551 -3.93539 0
-272.905 -3.94215 0
-271.259 -3.94726 0
-269.612 -3.95055 0
-267.967 -3.95295 0
-266.322 -3.9575 0
-264.676 -3.96334 0
-263.03 -3.96885 0
-261.385 -3.97744 0
-259.74 -3.98243 0
-258.095 -3.98959 0
-256.451 -3.99467 0
-254.805 -4.00112 0
-253.158 -4.00732 0
-251.511 -4.01304 0
-249.864 -4.01944 0
-248.218 -4.0252 0
-246.574 -4.03282 0
-244.928 -4.04284 0
-243.286 -4.0503 0
-241.641 -4.05691 0
-239.997 -4.06374 0
-238.35 -4.07441 0
-236.703 -4.08029 0
-235.057 -4.08971 0
-233.413 -4.09873 0
-231.77 -4.10473 0
-230.127 -4.11139 0
-228.479 -4.12024 0
-226.833 -4.13115 0
-225.187 -4.13783 0
-223.543 -4.14548 0
-221.898 -4.15473 0
-220.25 -4.16247 0
-218.606 -4.17263 0
-216.961 -4.17997 0
-215.316 -4.18407 0
-213.674 -4.19194 0
-212.028 -4.20091 0
-210.386 -4.21218 0
-208.74 -4.22496 0
-207.093 -4.23028 0
-205.449 -4.24026 0
-203.803 -4.24942 0
-202.161 -4.26003 0
-200.518 -4.26708 0
-198.873 -4.2769 0
-197.231 -4.28451 0
-195.584 -4.29222 0
-193.936 -4.29921 0
-192.29 -4.30982 0
-190.646 -4.3186 0
-189.002 -4.32896 0
-187.355 -4.33639 0
-185.714 -4.3435 0
-184.07 -4.35326 0
-182.426 -4.36159 0
-180.784 -4.37191 0
-179.14 -4.38121 0
-177.496 -4.39024 0
-175.85 -4.3989 0
-174.207 -4.40704 0
-172.565 -4.41298 0
-170.92 -4.42304 0
-169.274 -4.43022 0
-167.631 -4.43757 0
-165.987 -4.44616 0
-164.343 -4.45553 0
-162.694 -4.4645 0
-161.05 -4.47879 0
-159.405 -4.48358 0
-157.76 -4.49161 0
-156.118 -4.49872 0
-154.472 -4.50925 0
-152.829 -4.51492 0
-151.188 -4.52455 0
-149.542 -4.53086 0
-147.898 -4.54126 0
-146.25 -4.54871 0
-144.608 -4.55595 0
-142.965 -4.56203 0
-141.32 -4.57023 0
-139.675 -4.58265 0
-138.031 -4.58893 0
-136.39 -4.59763 0
-134.746 -4.60146 0
-133.103 -4.61142 0
-131.46 -4.6183 0
-129.816 -4.62934 0
-128.171 -4.63555 0
-126.527 -4.64282 0
-124.885 -4.6494 0
-123.241 -4.66084 0
-121.598 -4.66567 0
-119.954 -4.67228 0
-118.312 -4.68023 0
-116.666 -4.69077 0
-115.025 -4.70117 0
-113.379 -4.70292 0
-111.737 -4.71189 0
-110.096 -4.71896 0
-108.449 -4.72373 0
-106.804 -4.73183 0
-105.159 -4.73577 0
-103.518 -4.73895 0
-101.876 -4.74643 0
-100.233 -4.75435 0
-98.5897 -4.75705 0
-96.947 -4.76794 0
-95.3061 -4.77405 0
-93.6627 -4.7807 0
-92.0184 -4.78696 0
-90.3751 -4.79174 0
-88.7316 -4.79777 0
-87.0881 -4.80255 0
-85.4458 -4.8083 0
-83.8037 -4.81636 0
-82.159 -4.82069 0
-80.5173 -4.82368 0
-78.8748 -4.83121 0
-77.2306 -4.83286 0
-75.5905 -4.83793 0
-73.9451 -4.8439 0
-72.3 -4.84529 0
-70.6564 -4.84982 0
-69.0133 -4.85356 0
-67.3723 -4.85585 0
-65.7284 -4.85861 0
-64.0851 -4.86275 0
-62.4431 -4.86754 0
-60.8 -4.87279 0
-59.1537 -4.87581 0
-57.5093 -4.88124 0
-55.8683 -4.88348 0
-54.2242 -4.88694 0
-52.5815 -4.89003 0
-50.9388 -4.89194 0
-49.2983 -4.89008 0
-47.6544 -4.89718 0
-46.0127 -4.9002 0
-44.3684 -4.90441 0
-42.7258 -4.90699 0
-41.0808 -4.90806 0
-39.4399 -4.9095 0
-37.7948 -4.91277 0
-36.1494 -4.91427 0
-34.5059 -4.91642 0
-32.8613 -4.91874 0
-31.2172 -4.92071 0
-29.5741 -4.92243 0
-27.9333 -4.9269 0
-26.2895 -4.92768 0
-24.647 -4.93127 0
-23.0051 -4.93317 0
-21.3636 -4.93206 0
-19.7207 -4.93289 0
-18.0741 -4.93413 0
-16.4333 -4.9345 0
-14.7896 -4.93586 0
-13.1456 -4.93958 0
-11.5029 -4.93772 0
-9.86018 -4.93863 0
-8.21649 -4.93817 0
-6.57154 -4.93965 0
-4.92883 -4.93786 0
-3.28754 -4.9344 0
-1.64353 -4.93902 0
0 -4.93646 0
-1111.45 93.2665 0
-1111.03 84.7118 0
-1110.73 76.5511 0
-1110.41 68.6624 0
-1110.06 61.0482 0
-1109.72 53.7085 0
-1109.36 46.6531 0
-1108.95 39.8953 0
-1108.5 33.4569 0
-1108.01 27.367 0
-1107.5 21.6411 0
-1106.96 16.2816 0
-1106.4 11.287 0
-1105.83 6.64918 0
-1105.25 2.3559 0
-1104.65 -1.608 0
-1104.03 -5.26022 0
-1103.4 -8.62156 0
-1102.75 -11.7101 0
-1102.08 -14.5451 0
-1101.39 -17.1443 0
-1100.67 -19.5245 0
-1099.94 -21.7019 0
-1099.18 -23.6886 0
-1098.39 -25.4988 0
-1097.59 -27.1424 0
-1096.76 -28.631 0
-1095.92 -29.9734 0
-1095.05 -31.177 0
-1094.16 -32.25 0
-1093.24 -33.1984 0
-1092.31 -34.0293 0
-1091.36 -34.7465 0
-1090.39 -35.357 0
-1089.4 -35.8631 0
-1088.39 -36.2714 0
-1087.36 -36.5845 0
-1086.3 -36.808 0
-1085.23 -36.9451 0
-1084.14 -36.9992 0
-1083.03 -36.9747 0
-1081.9 -36.8751 0
-1080.75 -36.7043 0
-1079.57 -36.4665 0
-1078.38 -36.1652 0
-1077.17 -35.8039 0
-1075.94 -35.3862 0
-1074.69 -34.9157 0
-1073.42 -34.3961 0
-1072.13 -33.8296 0
-1070.82 -33.2219 0
-1069.49 -32.5739 0
-1068.15 -31.8907 0
-1066.78 -31.1737 0
-1065.4 -30.4269 0
-1064 -29.653 0
-1062.59 -28.8552 0
-1061.16 -28.0373 0
-1059.71 -27.1987 0
-1058.24 -26.3459 0
-1056.76 -25.4779 0
-1055.27 -24.5982 0
-1053.76 -23.7096 0
-1052.24 -22.8135 0
-1050.7 -21.9125 0
-1049.15 -21.0095 0
-1047.59 -20.1041 0
-1046.01 -19.1998 0
-1044.42 -18.2977 0
-1042.82 -17.4002 0
-1041.22 -16.5082 0
-1039.59 -15.6224 0
-1037.96 -14.7456 0
-1036.32 -13.8772 0
-1034.67 -13.019 0
-1033.02 -12.1742 0
-1031.35 -11.3416 0
-1029.68 -10.522 0
-1027.99 -9.71732 0
-1026.3 -8.92869 0
-1024.61 -8.15633 0
-1022.91 -7.40068 0
-1021.2 -6.66295 0
-1019.48 -5.94407 0
-1017.76 -5.2434 0
-1016.04 -4.56224 0
-1014.31 -3.90056 0
-1012.58 -3.25898 0
-1010.84 -2.63957 0
-1009.1 -2.03934 0
-1007.35 -1.46128 0
-1005.6 -0.903092 0
-1003.85 -0.366698 0
-1002.1 0.147031 0
-1000.35 0.640379 0
-998.589 1.11085 0
-996.83 1.56067 0
-995.07 1.98775 0
-993.307 2.39385 0
-991.544 2.77914 0
-989.781 3.14089 0
-988.017 3.4824 0
-986.253 3.80347 0
-984.488 4.10281 0