<?xml version="1.0"?>
<VTKFile type="StructuredGrid"  version="0.1" byte_order="LittleEndian" compressor="vtkZLibDataCompressor">
  <StructuredGrid WholeExtent="0 700 0 30 0 0">
    <Piece Extent="0 700 0 30 0 0">
      <PointData Vectors="Velocity">
        <DataArray type="Float32" Name="Velocity" NumberOfComponents="3" format="ascii">
-1090.32 62.3843 0
-1090.51 55.6392 0
-1090.77 49.077 0
-1091.06 42.8175 0
-1091.33 36.8946 0
-1091.54 31.2348 0
-1091.74 25.7797 0
-1091.99 20.6042 0
-1092.25 15.7925 0
-1092.49 11.368 0
-1092.71 7.32701 0
-1092.89 3.65965 0
-1093.03 0.353638 0
-1093.12 -2.60724 0
-1093.16 -5.24344 0
-1093.13 -7.57669 0
-1093.04 -9.63112 0
-1092.87 -11.4292 0
-1092.63 -12.9936 0
-1092.31 -14.345 0
-1091.93 -15.5026 0
-1091.47 -16.4847 0
-1090.95 -17.3078 0
-1090.37 -17.9864 0
-1089.74 -18.5338 0
-1089.04 -18.9634 0
-1088.3 -19.2852 0
-1087.51 -19.5096 0
-1086.67 -19.6445 0
-1085.79 -19.6994 0
-1084.87 -19.6797 0
-1083.91 -19.5931 0
-1082.92 -19.4441 0
-1081.89 -19.2395 0
-1080.83 -18.983 0
-1079.73 -18.6796 0
-1078.6 -18.3334 0
-1077.44 -17.9483 0
-1076.25 -17.5282 0
-1075.04 -17.0768 0
-1073.79 -16.5969 0
-1072.52 -16.0923 0
-1071.21 -15.5661 0
-1069.89 -15.0211 0
-1068.53 -14.4609 0
-1067.15 -13.8875 0
-1065.75 -13.3038 0
-1064.32 -12.7124 0
-1062.88 -12.1157 0
-1061.4 -11.5164 0
-1059.91 -10.9164 0
-1058.4 -10.318 0
-1056.87 -9.72253 0
-1055.32 -9.13205 0
-1053.76 -8.54859 0
-1052.18 -7.97355 0
-1050.58 -7.40842 0
-1048.97 -6.85376 0
-1047.34 -6.31292 0
-1045.7 -5.78422 0
-1044.05 -5.27066 0
-1042.39 -4.77249 0
-1040.71 -4.29097 0
-1039.03 -3.82647 0
-1037.34 -3.37918 0
-1035.64 -2.95011 0
-1033.93 -2.53993 0
-1032.21 -2.14868 0
-1030.49 -1.77713 0
-1028.77 -1.42529 0
-1027.03 -1.09311 0
-1025.3 -0.781353 0
-1023.56 -0.489514 0
-1021.81 -0.217537 0
-1020.07 0.034139 0
-1018.32 0.266504 0
-1016.57 0.478017 0
-1014.82 0.670837 0
-1013.06 0.844728 0
-1011.31 0.999172 0
-1009.56 1.13546 0
-1007.8 1.25315 0
-1006.05 1.35308 0
-1004.3 1.43464 0
-1002.55 1.49983 0
-1000.81 1.54852 0
-999.06 1.58057 0
-997.317 1.59699 0
-995.577 1.59953 0
-993.839 1.58634 0
-992.104 1.55881 0
-990.372 1.51941 0
-988.643 1.46712 0
-986.918 1.40187 0
-985.197 1.32507 0
-983.479 1.2378 0
-981.765 1.13918 0
-980.055 1.03188 0
-978.348 0.914106 0
-976.646 0.788812 0
-974.948 0.655375 0
-973.254 0.514985 0
-971.564 0.366861 0
-969.879 0.213854 0
-968.197 0.0547775 0
-966.519 -0.110071 0
-964.846 -0.278648 0
-963.176 -0.451495 0
-961.511 -0.627709 0
-959.849 -0.806977 0
-958.191 -0.988257 0
-956.537 -1.17077 0
-954.886 -1.35625 0
-953.239 -1.54128 0
-951.596 -1.7271 0
-949.957 -1.91289 0
-948.32 -2.09825 0
-946.688 -2.28353 0
-945.058 -2.46666 0
-943.43 -2.64777 0
-941.807 -2.82762 0
-940.185 -3.00506 0
-938.567 -3.17985 0
-936.951 -3.35114 0
-935.338 -3.5204 0
-933.726 -3.68624 0
-932.117 -3.84817 0
-930.51 -4.00596 0
-928.905 -4.15953 0
-927.303 -4.30911 0
-925.701 -4.45409 0
-924.101 -4.59423 0
-922.502 -4.72979 0
-920.905 -4.86017 0
-919.31 -4.9851 0
-917.715 -5.10596 0
-916.121 -5.22019 0
-914.528 -5.33042 0
-912.936 -5.43505 0
-911.345 -5.53345 0
-909.754 -5.62757 0
-908.164 -5.71586 0
-906.573 -5.7988 0
-904.983 -5.87517 0
-903.393 -5.94741 0
-901.804 -6.01383 0
-900.215 -6.07498 0
-898.625 -6.13134 0
-897.036 -6.18223 0
-895.447 -6.22666 0
-893.857 -6.26682 0
-892.266 -6.30289 0
-890.675 -6.33426 0
-889.084 -6.35895 0
-887.491 -6.38024 0
-885.898 -6.39521 0
-884.305 -6.40825 0
-882.711 -6.41572 0
-881.117 -6.41917 0
-879.522 -6.41973 0
-877.926 -6.4139 0
-876.328 -6.40458 0
-874.73 -6.39272 0
-873.131 -6.3782 0
-871.531 -6.35952 0
-869.931 -6.3378 0
-868.33 -6.31172 0
-866.727 -6.28314 0
-865.123 -6.25257 0
-863.518 -6.21892 0
-861.912 -6.18284 0
-860.305 -6.14475 0
-858.698 -6.10328 0
-857.09 -6.06099 0
-855.479 -6.01655 0
-853.868 -5.97079 0
-852.257 -5.92251 0
-850.644 -5.87337 0
-849.03 -5.82254 0
-847.414 -5.77024 0
-845.798 -5.71821 0
-844.18 -5.66455 0
-842.562 -5.60876 0
-840.944 -5.55402 0
-839.324 -5.49815 0
-837.703 -5.44253 0
-836.081 -5.38607 0
-834.459 -5.33064 0
-832.835 -5.27307 0
-831.209 -5.21735 0
-829.584 -5.16101 0
-827.959 -5.10445 0
-826.332 -5.04922 0
-824.704 -4.99221 0
-823.076 -4.93786 0
-821.446 -4.88378 0
-819.817 -4.83115 0
-818.186 -4.77968 0
-816.555 -4.7278 0
-814.923 -4.67725 0
-813.291 -4.62791 0
-811.658 -4.5796 0
-810.026 -4.53311 0
-808.392 -4.48657 0
-806.757 -4.44266 0
-805.123 -4.3989 0
-803.488 -4.35615 0
-801.852 -4.31484 0
-800.217 -4.27569 0
-798.581 -4.23781 0
-796.945 -4.20075 0
-795.308 -4.16628 0
-793.671 -4.13252 0
-792.035 -4.09893 0
-790.397 -4.06833 0
-788.759 -4.04024 0
-787.123 -4.01326 0
-785.486 -3.98699 0
-783.848 -3.96349 0
-782.21 -3.94027 0
-780.572 -3.91985 0
-778.934 -3.90046 0
-777.297 -3.88215 0
-775.66 -3.86499 0
-774.022 -3.84896 0
-772.384 -3.83698 0
-770.746 -3.82479 0
-769.108 -3.8147 0
-767.471 -3.80687 0
-765.833 -3.79909 0
-764.196 -3.79323 0
-762.559 -3.78784 0
-760.923 -3.78482 0
-759.286 -3.78256 0
-757.65 -3.78203 0
-756.013 -3.78211 0
-754.378 -3.78493 0
-752.741 -3.78662 0
-751.106 -3.7902 0
-749.47 -3.79606 0
-747.835 -3.79984 0
-746.202 -3.80804 0
-744.567 -3.81583 0
-742.934 -3.82503 0
-741.299 -3.83537 0
-739.667 -3.84697 0
-738.034 -3.85853 0
-736.4 -3.86961 0
-734.768 -3.88327 0
-733.135 -3.89779 0
-731.503 -3.91292 0
-729.872 -3.92757 0
-728.239 -3.94406 0
-726.608 -3.95925 0
-724.978 -3.97661 0
-723.346 -3.99431 0
-721.716 -4.01194 0
-720.085 -4.03006 0
-718.456 -4.05003 0
-716.827 -4.06737 0
-715.197 -4.08647 0
-713.569 -4.10641 0
-711.939 -4.12536 0
-710.31 -4.14611 0
-708.682 -4.16623 0
-707.055 -4.1867 0
-705.428 -4.20612 0
-703.799 -4.22724 0
-702.172 -4.24667 0
-700.548 -4.26628 0
-698.921 -4.28588 0
-697.295 -4.30584 0
-695.667 -4.32644 0
-694.041 -4.34524 0
-692.416 -4.3642 0
-690.79 -4.38328 0
-689.165 -4.40314 0
-687.54 -4.42148 0
-685.915 -4.4398 0
-684.29 -4.45711 0
-682.665 -4.47746 0
-681.041 -4.49348 0
-679.416 -4.51151 0
-677.792 -4.5305 0
-676.168 -4.54724 0
-674.544 -4.56391 0
-672.922 -4.57939 0
-671.298 -4.59539 0
-669.676 -4.60947 0
-668.052 -4.62644 0
-666.428 -4.63972 0
-664.804 -4.65298 0
-663.182 -4.66632 0
-661.559 -4.68014 0
-659.935 -4.69301 0
-658.312 -4.70536 0
-656.688 -4.71607 0
-655.065 -4.72726 0
-653.443 -4.73746 0
-651.82 -4.74804 0
-650.197 -4.75812 0
-648.573 -4.76729 0
-646.951 -4.77548 0
-645.329 -4.78366 0
-643.706 -4.79214 0
-642.083 -4.79997 0
-640.461 -4.80587 0
-638.837 -4.8112 0
-637.214 -4.81676 0
-635.593 -4.82117 0
-633.97 -4.82607 0
-632.347 -4.83 0
-630.724 -4.83411 0
-629.102 -4.83754 0
-627.479 -4.83929 0
-625.856 -4.84143 0
-624.232 -4.84327 0
-622.61 -4.84718 0
-620.987 -4.84752 0
-619.363 -4.84825 0
-617.74 -4.84959 0
-616.117 -4.84913 0
-614.494 -4.84868 0
-612.87 -4.84776 0
-611.247 -4.84765 0
-609.623 -4.84428 0
-607.998 -4.84333 0
-606.376 -4.84139 0
-604.751 -4.84022 0
-603.128 -4.8375 0
-601.503 -4.83428 0
-599.88 -4.832 0
-598.256 -4.8283 0
-596.63 -4.82497 0
-595.006 -4.82007 0
-593.38 -4.81854 0
-591.756 -4.81349 0
-590.131 -4.80767 0
-588.509 -4.8044 0
-586.883 -4.79874 0
-585.259 -4.79502 0
-583.634 -4.7894 0
-582.01 -4.78411 0
-580.385 -4.77603 0
-578.76 -4.76903 0
-577.133 -4.76577 0
-575.508 -4.76075 0
-573.883 -4.75219 0
-572.256 -4.74791 0
-570.633 -4.74233 0
-569.008 -4.73462 0
-567.381 -4.72883 0
-565.755 -4.72179 0
-564.129 -4.71471 0
-562.502 -4.71002 0
-560.876 -4.70542 0
-559.25 -4.70005 0
-557.623 -4.69438 0
-555.998 -4.68823 0
-554.373 -4.67998 0
-552.747 -4.67507 0
-551.121 -4.67048 0
-549.494 -4.66347 0
-547.869 -4.65699 0
-546.242 -4.6522 0
-544.614 -4.64674 0
-542.987 -4.64046 0
-541.36 -4.63704 0
-539.734 -4.63034 0
-538.106 -4.62503 0
-536.479 -4.61815 0
-534.853 -4.61191 0
-533.226 -4.60535 0
-531.599 -4.60206 0
-529.973 -4.59849 0
-528.347 -4.59184 0
-526.721 -4.5886 0
-525.093 -4.58167 0
-523.465 -4.57977 0
-521.838 -4.57522 0
-520.213 -4.56928 0
-518.586 -4.56684 0
-516.958 -4.56095 0
-515.332 -4.55649 0
-513.705 -4.55317 0
-512.08 -4.54979 0
-510.449 -4.54704 0
-508.823 -4.54274 0
-507.197 -4.53841 0
-505.57 -4.53563 0
-503.942 -4.53038 0
-502.315 -4.53008 0
-500.688 -4.52806 0
-499.06 -4.52467 0
-497.432 -4.52241 0
-495.805 -4.51882 0
-494.177 -4.51822 0
-492.552 -4.51736 0
-490.925 -4.51289 0
-489.297 -4.51184 0
-487.67 -4.50921 0
-486.043 -4.50694 0
-484.416 -4.50707 0
-482.789 -4.50412 0
-481.162 -4.50405 0
-479.534 -4.50167 0
-477.907 -4.50145 0
-476.282 -4.49944 0
-474.654 -4.49698 0
-473.028 -4.49343 0
-471.401 -4.49387 0
-469.773 -4.49464 0
-468.146 -4.49422 0
-466.52 -4.49384 0
-464.894 -4.4933 0
-463.268 -4.49274 0
-461.64 -4.49346 0
-460.014 -4.49233 0
-458.386 -4.49265 0
-456.759 -4.49487 0
-455.13 -4.49295 0
-453.506 -4.4924 0
-451.88 -4.4919 0
-450.255 -4.49445 0
-448.629 -4.49242 0
-447.002 -4.49346 0
-445.375 -4.49434 0
-443.751 -4.49724 0
-442.122 -4.49507 0
-440.496 -4.49779 0
-438.867 -4.49725 0
-437.241 -4.49783 0
-435.615 -4.49955 0
-433.991 -4.50222 0
-432.365 -4.50382 0
-430.74 -4.50404 0
-429.113 -4.50458 0
-427.485 -4.5062 0
-425.859 -4.50565 0
-424.233 -4.50375 0
-422.609 -4.50753 0
-420.984 -4.50863 0
-419.357 -4.50906 0
-417.731 -4.50979 0
-416.105 -4.51244 0
-414.479 -4.50958 0
-412.855 -4.51178 0
-411.228 -4.51019 0
-409.601 -4.50967 0
-407.976 -4.51209 0
-406.352 -4.51285 0
-404.725 -4.51422 0
-403.099 -4.51501 0
-401.473 -4.51502 0
-399.847 -4.51356 0
-398.222 -4.5126 0
-396.595 -4.51562 0
-394.971 -4.51649 0
-393.346 -4.51375 0
-391.718 -4.51714 0
-390.092 -4.51786 0
-388.469 -4.51832 0
-386.842 -4.5188 0
-385.218 -4.51642 0
-383.592 -4.51591 0
-381.965 -4.51744 0
-380.339 -4.51726 0
-378.715 -4.51715 0
-377.092 -4.51407 0
-375.466 -4.51722 0
-373.839 -4.51732 0
-372.216 -4.51682 0
-370.591 -4.51617 0
-368.966 -4.51402 0
-367.337 -4.51372 0
-365.712 -4.51208 0
-364.087 -4.51315 0
-362.462 -4.51154 0
-360.838 -4.51203 0
-359.213 -4.50936 0
-357.588 -4.51018 0
-355.961 -4.50817 0
-354.335 -4.50597 0
-352.707 -4.50448 0
-351.083 -4.50543 0
-349.46 -4.50269 0
-347.834 -4.50507 0
-346.209 -4.5017 0
-344.583 -4.50091 0
-342.96 -4.49847 0
-341.335 -4.49744 0
-339.709 -4.49754 0
-338.084 -4.49437 0
-336.456 -4.49283 0
-334.83 -4.49393 0
-333.204 -4.49213 0
-331.579 -4.49033 0
-329.955 -4.48936 0
-328.328 -4.48788 0
-326.702 -4.48647 0
-325.077 -4.48327 0
-323.453 -4.48346 0
-321.828 -4.48093 0
-320.201 -4.47757 0
-318.577 -4.47643 0
-316.953 -4.47622 0
-315.326 -4.47316 0
-313.701 -4.46919 0
-312.076 -4.46813 0
-310.45 -4.46486 0
-308.825 -4.46342 0
-307.199 -4.4599 0
-305.573 -4.4558 0
-303.946 -4.45533 0
-302.321 -4.45192 0
-300.696 -4.45179 0
-299.069 -4.446 0
-297.446 -4.44507 0
-295.822 -4.44407 0
-294.197 -4.43792 0
-292.57 -4.43718 0
-290.944 -4.43445 0
-289.319 -4.43195 0
-287.692 -4.42778 0
-286.069 -4.42704 0
-284.443 -4.42658 0
-282.815 -4.42183 0
-281.19 -4.42017 0
-279.565 -4.41798 0
-277.936 -4.41575 0
-276.311 -4.41562 0
-274.687 -4.41328 0
-273.064 -4.40827 0
-271.436 -4.40634 0
-269.811 -4.40307 0
-268.185 -4.40137 0
-266.562 -4.39929 0
-264.935 -4.39461 0
-263.308 -4.39164 0
-261.684 -4.38771 0
-260.059 -4.38493 0
-258.434 -4.38245 0
-256.81 -4.38015 0
-255.184 -4.37667 0
-253.557 -4.37337 0
-251.932 -4.36985 0
-250.307 -4.36733 0
-248.681 -4.36917 0
-247.056 -4.3633 0
-245.429 -4.36167 0
-243.806 -4.35899 0
-242.179 -4.35747 0
-240.55 -4.35416 0
-238.925 -4.35204 0
-237.298 -4.34864 0
-235.674 -4.34908 0
-234.051 -4.34292 0
-232.428 -4.34287 0
-230.801 -4.33915 0
-229.176 -4.33847 0
-227.551 -4.33407 0
-225.925 -4.33311 0
-224.297 -4.33054 0
-222.67 -4.32683 0
-221.045 -4.32619 0
-219.422 -4.32473 0
-217.795 -4.32261 0
-216.171 -4.3195 0
-214.545 -4.31337 0
-212.915 -4.31585 0
-211.291 -4.31303 0
-209.664 -4.31068 0
-208.04 -4.30907 0
-206.415 -4.30963 0
-204.789 -4.306 0
-203.162 -4.29878 0
-201.538 -4.2983 0
-199.911 -4.29661 0
-198.285 -4.29515 0
-196.658 -4.29226 0
-195.035 -4.28925 0
-193.41 -4.2883 0
-191.785 -4.28274 0
-190.161 -4.28152 0
-188.535 -4.28429 0
-186.907 -4.27918 0
-185.284 -4.27955 0
-183.656 -4.27785 0
-182.032 -4.27456 0
-180.406 -4.27403 0
-178.78 -4.27377 0
-177.155 -4.27008 0
-175.528 -4.2668 0
-173.9 -4.26755 0
-172.277 -4.26824 0
-170.65 -4.26304 0
-169.025 -4.26004 0
-167.401 -4.25645 0
-165.775 -4.25549 0
-164.148 -4.25335 0
-162.523 -4.25636 0
-160.896 -4.25764 0
-159.275 -4.25418 0
-157.648 -4.25264 0
-156.02 -4.24923 0
-154.396 -4.24966 0
-152.769 -4.24743 0
-151.143 -4.24637 0
-149.52 -4.24357 0
-147.895 -4.24299 0
-146.266 -4.2435 0
-144.642 -4.24166 0
-143.014 -4.24278 0
-141.391 -4.24076 0
-139.769 -4.24032 0
-138.142 -4.23572 0
-136.517 -4.23628 0
-134.891 -4.2376 0
-133.266 -4.23493 0
-131.643 -4.23313 0
-130.014 -4.22946 0
-128.388 -4.23019 0
-126.761 -4.22993 0
-125.136 -4.22771 0
-123.51 -4.22927 0
-121.884 -4.22738 0
-120.259 -4.2264 0
-118.634 -4.22847 0
-117.009 -4.22471 0
-115.383 -4.22653 0
-113.759 -4.22822 0
-112.136 -4.22809 0
-110.507 -4.22423 0
-108.883 -4.22274 0
-107.259 -4.2236 0
-105.634 -4.22258 0
-104.009 -4.22143 0
-102.382 -4.22015 0
-100.757 -4.22003 0
-99.1293 -4.21943 0
-97.503 -4.21877 0
-95.8784 -4.22101 0
-94.2539 -4.21957 0
-92.631 -4.21835 0
-91.0051 -4.21718 0
-89.3773 -4.21743 0
-87.7518 -4.21713 0
-86.1276 -4.21588 0
-84.5021 -4.21574 0
-82.8752 -4.21547 0
-81.2521 -4.2183 0
-79.6275 -4.21641 0
-78.0035 -4.21295 0
-76.377 -4.21431 0
-74.7498 -4.21426 0
-73.1247 -4.21455 0
-71.5002 -4.2131 0
-69.8745 -4.20955 0
-68.2514 -4.21101 0
-66.6247 -4.21051 0
-64.9987 -4.20773 0
-63.3748 -4.20547 0
-61.7507 -4.20887 0
-60.1248 -4.20813 0
-58.4974 -4.20879 0
-56.8729 -4.2083 0
-55.251 -4.20992 0
-53.6265 -4.20625 0
-52.0011 -4.20586 0
-50.3738 -4.20523 0
-48.7486 -4.20494 0
-47.1252 -4.20661 0
-45.4996 -4.20365 0
-43.8756 -4.20218 0
-42.249 -4.20136 0
-40.6228 -4.20255 0
-38.9969 -4.20444 0
-37.3718 -4.20557 0
-35.749 -4.20312 0
-34.1269 -4.20087 0
-32.5001 -4.20233 0
-30.8745 -4.20076 0
-29.2479 -4.20206 0
-27.6249 -4.20192 0
-26.0016 -4.20179 0
-24.3769 -4.19845 0
-22.7541 -4.19797 0
-21.1309 -4.19927 0
-19.504 -4.20094 0
-17.8781 -4.19657 0
-16.2504 -4.19621 0
-14.6263 -4.19583 0
-13.0026 -4.20018 0
-11.376 -4.19943 0
-9.74889 -4.19918 0
-8.12507 -4.19982 0
-6.50203 -4.19814 0
-4.87587 -4.1971 0
-3.25247 -4.19825 0
-1.62622 -4.19707 0
0 -4.1968 0
-1097.07 62.619 0
-1097.11 55.817 0
-1097.13 49.2309 0
-1097.1 42.9566 0
-1097.08 37.0215 0
-1097.1 31.354 0
-1097.1 25.8942 0
-1097.03 20.7144 0
-1096.92 15.8984 0
-1096.77 11.4731 0
-1096.61 7.43643 0
-1096.43 3.78072 0
-1096.22 0.494893 0
-1095.97 -2.43704 0
-1095.69 -5.03542 0
-1095.36 -7.32445 0
-1094.99 -9.32805 0
-1094.57 -11.0728 0
-1094.1 -12.5812 0
-1093.58 -13.8763 0
-1093.01 -14.9783 0
-1092.39 -15.9063 0
-1091.71 -16.6769 0
-1091 -17.3055 0
-1090.23 -17.8052 0
-1089.42 -18.1891 0
-1088.58 -18.4683 0
-1087.69 -18.6516 0
-1086.77 -18.7484 0
-1085.81 -18.766 0
-1084.82 -18.7114 0
-1083.8 -18.5909 0
-1082.75 -18.4095 0
-1081.66 -18.1731 0
-1080.55 -17.8865 0
-1079.41 -17.5533 0
-1078.24 -17.1783 0
-1077.05 -16.7649 0
-1075.83 -16.317 0
-1074.58 -15.8383 0
-1073.3 -15.3323 0
-1072.01 -14.802 0
-1070.69 -14.2508 0
-1069.34 -13.6812 0
-1067.97 -13.0974 0
-1066.58 -12.5003 0
-1065.17 -11.8948 0
-1063.74 -11.2817 0
-1062.29 -10.6647 0
-1060.81 -10.0451 0
-1059.32 -9.42607 0
-1057.81 -8.809 0
-1056.29 -8.19618 0
-1054.75 -7.58911 0
-1053.19 -6.98999 0
-1051.62 -6.39987 0
-1050.03 -5.82024 0
-1048.43 -5.25265 0
-1046.81 -4.69836 0
-1045.19 -4.15845 0
-1043.55 -3.63369 0
-1041.91 -3.1253 0
-1040.25 -2.63399 0
-1038.58 -2.16035 0
-1036.91 -1.7048 0
-1035.23 -1.26843 0
-1033.54 -0.851296 0
-1031.84 -0.453976 0
-1030.14 -0.076787 0
-1028.43 0.280132 0
-1026.72 0.616749 0
-1025 0.9325 0
-1023.28 1.22795 0
-1021.56 1.50257 0
-1019.83 1.75668 0
-1018.1 1.99031 0
-1016.37 2.20376 0
-1014.64 2.39786 0
-1012.9 2.57206 0
-1011.17 2.72704 0
-1009.43 2.86303 0
-1007.7 2.98045 0
-1005.97 3.07908 0
-1004.23 3.15985 0
-1002.5 3.22344 0
-1000.77 3.27036 0
-999.039 3.30044 0
-997.31 3.3153 0
-995.584 3.31488 0
-993.86 3.29939 0
-992.138 3.26945 0
-990.42 3.22679 0
-988.703 3.17126 0
-986.99 3.10284 0
-985.279 3.02279 0
-983.572 2.93169 0
-981.868 2.83012 0
-980.167 2.71881 0
-978.469 2.59777 0
-976.775 2.46838 0
-975.085 2.33132 0
-973.398 2.1868 0
-971.714 2.03545 0
-970.034 1.87839 0
-968.358 1.7159 0
-966.685 1.54714 0
-965.015 1.37486 0
-963.349 1.19829 0
-961.686 1.01834 0
-960.027 0.835833 0
-958.371 0.650891 0
-956.719 0.464354 0
-955.069 0.276341 0
-953.424 0.0874723 0
-951.78 -0.101225 0
-950.141 -0.290799 0
-948.504 -0.478938 0
-946.87 -0.666308 0
-945.238 -0.852614 0
-943.609 -1.03655 0
-941.983 -1.21924 0
-940.36 -1.39972 0
-938.738 -1.57628 0
-937.12 -1.7505 0
-935.503 -1.92165 0
-933.888 -2.08949 0
-932.275 -2.25327 0
-930.664 -2.41286 0
-929.055 -2.56829 0
-927.448 -2.71965 0
-925.842 -2.86592 0
-924.237 -3.00738 0
-922.634 -3.14449 0
-921.031 -3.2759 0
-919.431 -3.40212 0
-917.831 -3.52339 0
-916.232 -3.63928 0
-914.634 -3.74988 0
-913.036 -3.85545 0
-911.44 -3.95478 0
-909.844 -4.04895 0
-908.247 -4.13739 0
-906.652 -4.22054 0
-905.057 -4.29765 0
-903.461 -4.37015 0
-901.867 -4.43691 0
-900.272 -4.49788 0
-898.678 -4.55402 0
-897.083 -4.60465 0
-895.488 -4.64929 0
-893.893 -4.68886 0
-892.298 -4.72472 0
-890.702 -4.75536 0
-889.106 -4.78021 0
-887.509 -4.79953 0
-885.912 -4.81578 0
-884.315 -4.82688 0
-882.717 -4.83437 0
-881.118 -4.83777 0
-879.519 -4.83645 0
-877.918 -4.83046 0
-876.318 -4.82013 0
-874.717 -4.80785 0
-873.114 -4.79171 0
-871.512 -4.77279 0
-869.908 -4.7501 0
-868.303 -4.72299 0
-866.698 -4.69398 0
-865.091 -4.66175 0
-863.484 -4.62725 0
-861.876 -4.59014 0
-860.267 -4.55107 0
-858.657 -4.50892 0
-857.046 -4.46551 0
-855.434 -4.42005 0
-853.822 -4.37295 0
-852.208 -4.32358 0
-850.593 -4.27395 0
-848.979 -4.22166 0
-847.363 -4.16941 0
-845.745 -4.11523 0
-844.127 -4.06067 0
-842.509 -4.00481 0
-840.889 -3.94928 0
-839.269 -3.89295 0
-837.647 -3.83565 0
-836.025 -3.77934 0
-834.402 -3.72159 0
-832.778 -3.66441 0
-831.155 -3.60747 0
-829.53 -3.55091 0
-827.904 -3.49291 0
-826.277 -3.43663 0
-824.65 -3.37983 0
-823.022 -3.32387 0
-821.393 -3.27012 0
-819.764 -3.21668 0
-818.135 -3.16425 0
-816.505 -3.11205 0
-814.874 -3.06042 0
-813.242 -3.01118 0
-811.611 -2.96273 0
-809.979 -2.91448 0
-808.346 -2.8681 0
-806.714 -2.8234 0
-805.08 -2.78001 0
-803.447 -2.73662 0
-801.813 -2.69559 0
-800.179 -2.6557 0
-798.544 -2.61756 0
-796.909 -2.58056 0
-795.274 -2.54518 0
-793.64 -2.51108 0
-792.003 -2.47857 0
-790.368 -2.44681 0
-788.732 -2.41874 0
-787.097 -2.39166 0
-785.461 -2.36541 0
-783.824 -2.34237 0
-782.188 -2.31828 0
-780.552 -2.29748 0
-778.915 -2.27785 0
-777.28 -2.26014 0
-775.643 -2.24266 0
-774.007 -2.22764 0
-772.371 -2.21468 0
-770.734 -2.20413 0
-769.099 -2.19357 0
-767.463 -2.1847 0
-765.827 -2.17722 0
-764.191 -2.17133 0
-762.555 -2.16775 0
-760.92 -2.16355 0
-759.285 -2.16192 0
-757.649 -2.16205 0
-756.015 -2.16265 0
-754.38 -2.16424 0
-752.745 -2.16661 0
-751.111 -2.17117 0
-749.477 -2.17595 0
-747.843 -2.18189 0
-746.209 -2.18811 0
-744.576 -2.19642 0
-742.944 -2.20563 0
-741.311 -2.21648 0
-739.677 -2.22785 0
-738.044 -2.24096 0
-736.413 -2.25252 0
-734.781 -2.26581 0
-733.15 -2.2808 0
-731.518 -2.29597 0
-729.886 -2.31065 0
-728.255 -2.32755 0
-726.624 -2.34369 0
-724.994 -2.36122 0
-723.364 -2.37935 0
-721.733 -2.39669 0
-720.104 -2.41529 0
-718.474 -2.4337 0
-716.845 -2.45368 0
-715.216 -2.47287 0
-713.588 -2.49255 0
-711.959 -2.51219 0
-710.331 -2.53333 0
-708.702 -2.55351 0
-707.075 -2.57394 0
-705.447 -2.59353 0
-703.82 -2.61462 0
-702.193 -2.63501 0
-700.566 -2.65395 0
-698.94 -2.67412 0
-697.314 -2.6935 0
-695.687 -2.71429 0
-694.061 -2.7345 0
-692.435 -2.75412 0
-690.809 -2.77242 0
-689.183 -2.79262 0
-687.558 -2.8111 0
-685.934 -2.82932 0
-684.308 -2.84814 0
-682.683 -2.86782 0
-681.059 -2.88389 0
-679.435 -2.90242 0
-677.809 -2.92099 0
-676.185 -2.9378 0
-674.561 -2.95518 0
-672.937 -2.97107 0
-671.313 -2.9869 0
-669.69 -3.00181 0
-668.066 -3.01661 0
-666.442 -3.03163 0
-664.818 -3.04484 0
-663.194 -3.05776 0
-661.57 -3.07068 0
-659.947 -3.08453 0
-658.323 -3.09634 0
-656.699 -3.10784 0
-655.075 -3.11831 0
-653.453 -3.12889 0
-651.831 -3.14029 0
-650.207 -3.14992 0
-648.584 -3.15873 0
-646.961 -3.16726 0
-645.338 -3.17566 0
-643.713 -3.18492 0
-642.089 -3.19097 0
-640.467 -3.19743 0
-638.844 -3.20262 0
-637.221 -3.20962 0
-635.597 -3.21308 0
-633.974 -3.21724 0
-632.351 -3.22184 0
-630.728 -3.22534 0
-629.104 -3.2299 0
-627.481 -3.23104 0
-625.857 -3.2343 0
-624.234 -3.23527 0
-622.611 -3.23782 0
-620.987 -3.23861 0
-619.364 -3.24005 0
-617.741 -3.24103 0
-616.117 -3.24046 0
-614.494 -3.24061 0
-612.87 -3.23914 0
-611.246 -3.23744 0
-609.622 -3.23536 0
-607.997 -3.23532 0
-606.372 -3.23271 0
-604.748 -3.23055 0
-603.125 -3.22832 0
-601.5 -3.22622 0
-599.875 -3.22249 0
-598.251 -3.21878 0
-596.627 -3.21524 0
-595.003 -3.21163 0
-593.378 -3.20763 0
-591.752 -3.20297 0
-590.13 -3.199 0
-588.503 -3.19416 0
-586.878 -3.18923 0
-585.253 -3.18516 0
-583.629 -3.17877 0
-582.002 -3.17319 0
-580.378 -3.16668 0
-578.753 -3.15995 0
-577.127 -3.15518 0
-575.502 -3.1491 0
-573.878 -3.14369 0
-572.253 -3.13719 0
-570.627 -3.13107 0
-569.001 -3.12348 0
-567.375 -3.11772 0
-565.749 -3.11139 0
-564.123 -3.1051 0
-562.497 -3.09824 0
-560.871 -3.09503 0
-559.244 -3.08858 0
-557.62 -3.08374 0
-555.993 -3.07571 0
-554.367 -3.06953 0
-552.74 -3.0652 0
-551.115 -3.05929 0
-549.489 -3.05267 0
-547.861 -3.046 0
-546.236 -3.04019 0
-544.607 -3.03507 0
-542.981 -3.02934 0
-541.354 -3.0249 0
-539.727 -3.01905 0
-538.101 -3.01261 0
-536.475 -3.00699 0
-534.848 -3.00122 0
-533.222 -2.99338 0
-531.596 -2.98935 0
-529.969 -2.98626 0
-528.342 -2.98084 0
-526.715 -2.97611 0
-525.088 -2.97012 0
-523.462 -2.96773 0
-521.834 -2.96248 0
-520.209 -2.9577 0
-518.58 -2.95305 0
-516.953 -2.94881 0
-515.328 -2.9448 0
-513.7 -2.94091 0
-512.073 -2.93712 0
-510.446 -2.93302 0
-508.819 -2.93087 0
-507.193 -2.92667 0
-505.566 -2.92424 0
-503.939 -2.91927 0
-502.312 -2.91745 0
-500.685 -2.91552 0
-499.056 -2.91261 0
-497.43 -2.90916 0
-495.803 -2.90736 0
-494.177 -2.90582 0
-492.548 -2.90475 0
-490.922 -2.90219 0
-489.296 -2.89971 0
-487.668 -2.89746 0
-486.041 -2.89494 0
-484.415 -2.89418 0
-482.788 -2.89292 0
-481.162 -2.89244 0
-479.534 -2.88988 0
-477.908 -2.88818 0
-476.281 -2.88854 0
-474.654 -2.88494 0
-473.027 -2.88223 0
-471.401 -2.88252 0
-469.773 -2.8817 0
-468.147 -2.88218 0
-466.52 -2.88095 0
-464.892 -2.88072 0
-463.266 -2.88167 0
-461.642 -2.88075 0
-460.014 -2.88204 0
-458.387 -2.88148 0
-456.759 -2.88056 0
-455.133 -2.88272 0
-453.507 -2.8814 0
-451.88 -2.88118 0
-450.255 -2.88238 0
-448.629 -2.88189 0
-447.002 -2.88223 0
-445.376 -2.88325 0
-443.749 -2.88462 0
-442.123 -2.88533 0
-440.496 -2.8861 0
-438.869 -2.88604 0
-437.243 -2.88704 0
-435.617 -2.88946 0
-433.99 -2.89203 0
-432.364 -2.89339 0
-430.739 -2.89241 0
-429.112 -2.89132 0
-427.486 -2.89294 0
-425.86 -2.89473 0
-424.236 -2.89329 0
-422.61 -2.89637 0
-420.984 -2.89718 0
-419.358 -2.89773 0
-417.731 -2.89932 0
-416.105 -2.90113 0
-414.48 -2.9004 0
-412.855 -2.90129 0
-411.229 -2.89959 0
-409.604 -2.89999 0
-407.977 -2.90088 0
-406.352 -2.90126 0
-404.725 -2.90295 0
-403.099 -2.90318 0
-401.473 -2.90369 0
-399.849 -2.90267 0
-398.222 -2.90131 0
-396.598 -2.9048 0
-394.972 -2.90556 0
-393.346 -2.90459 0
-391.721 -2.90645 0
-390.094 -2.90592 0
-388.467 -2.90665 0
-386.842 -2.90694 0
-385.217 -2.90763 0
-383.591 -2.90694 0
-381.966 -2.90636 0
-380.339 -2.90749 0
-378.714 -2.90771 0
-377.089 -2.9073 0
-375.465 -2.90563 0
-373.841 -2.90628 0
-372.217 -2.90785 0
-370.59 -2.90481 0
-368.963 -2.90429 0
-367.338 -2.90144 0
-365.712 -2.9016 0
-364.086 -2.90222 0
-362.462 -2.90103 0
-360.837 -2.90117 0
-359.21 -2.90022 0
-357.585 -2.89875 0
-355.96 -2.89778 0
-354.334 -2.89533 0
-352.709 -2.89481 0
-351.082 -2.89544 0
-349.456 -2.89407 0
-347.831 -2.89403 0
-346.207 -2.89155 0
-344.581 -2.89084 0
-342.958 -2.88876 0
-341.332 -2.88747 0
-339.707 -2.88703 0
-338.082 -2.88262 0
-336.456 -2.88269 0
-334.831 -2.88373 0
-333.204 -2.881 0
-331.579 -2.88035 0
-329.952 -2.87936 0
-328.326 -2.87758 0
-326.704 -2.8749 0
-325.078 -2.87406 0
-323.451 -2.87262 0
-321.826 -2.87094 0
-320.2 -2.86893 0
-318.575 -2.86528 0
-316.95 -2.86351 0
-315.323 -2.86195 0
-313.697 -2.85844 0
-312.072 -2.85607 0
-310.447 -2.85445 0
-308.82 -2.85356 0
-307.194 -2.85007 0
-305.569 -2.84592 0
-303.946 -2.84365 0
-302.319 -2.84192 0
-300.694 -2.83917 0
-299.068 -2.83729 0
-297.443 -2.83599 0
-295.819 -2.83241 0
-294.192 -2.82893 0
-292.568 -2.82458 0
-290.941 -2.82425 0
-289.315 -2.81983 0
-287.691 -2.8177 0
-286.065 -2.8177 0
-284.438 -2.81528 0
-282.814 -2.81043 0
-281.188 -2.8088 0
-279.563 -2.80601 0
-277.937 -2.8058 0
-276.309 -2.80367 0
-274.682 -2.80255 0
-273.057 -2.79812 0
-271.433 -2.79534 0
-269.809 -2.79351 0
-268.183 -2.7915 0
-266.557 -2.78789 0
-264.932 -2.78443 0
-263.307 -2.78238 0
-261.681 -2.77774 0
-260.057 -2.77527 0
-258.433 -2.77315 0
-256.807 -2.76934 0
-255.181 -2.76618 0
-253.555 -2.76239 0
-251.93 -2.76061 0
-250.305 -2.75884 0
-248.679 -2.75704 0
-247.054 -2.7531 0
-245.428 -2.74964 0
-243.802 -2.74733 0
-242.174 -2.74562 0
-240.55 -2.743 0
-238.922 -2.74065 0
-237.297 -2.7375 0
-235.673 -2.73881 0
-234.049 -2.73387 0
-232.422 -2.73147 0
-230.799 -2.72922 0
-229.173 -2.72631 0
-227.548 -2.72437 0
-225.923 -2.72012 0
-224.296 -2.71859 0
-222.67 -2.71729 0
-221.045 -2.7164 0
-219.419 -2.7152 0
-217.794 -2.71098 0
-216.168 -2.70895 0
-214.543 -2.70324 0
-212.916 -2.70438 0
-211.29 -2.70303 0
-209.663 -2.70004 0
-208.037 -2.69806 0
-206.411 -2.69606 0
-204.786 -2.69414 0
-203.161 -2.6881 0
-201.537 -2.68872 0
-199.909 -2.68592 0
-198.284 -2.68375 0
-196.66 -2.68354 0
-195.034 -2.67892 0
-193.407 -2.67598 0
-191.783 -2.67266 0
-190.158 -2.67297 0
-188.532 -2.67096 0
-186.906 -2.67056 0
-185.281 -2.6684 0
-183.656 -2.66459 0
-182.028 -2.66345 0
-180.404 -2.66212 0
-178.778 -2.66157 0
-177.152 -2.66059 0
-175.526 -2.65703 0
-173.902 -2.6571 0
-172.275 -2.65686 0
-170.65 -2.65202 0
-169.022 -2.64919 0
-167.398 -2.64722 0
-165.774 -2.64463 0
-164.148 -2.64555 0
-162.522 -2.64445 0
-160.896 -2.64511 0
-159.271 -2.64296 0
-157.646 -2.64144 0
-156.019 -2.63853 0
-154.394 -2.63757 0
-152.767 -2.63573 0
-151.143 -2.63537 0
-149.517 -2.63361 0
-147.89 -2.6308 0
-146.266 -2.63178 0
-144.639 -2.63159 0
-143.016 -2.63301 0
-141.39 -2.63072 0
-139.766 -2.6299 0
-138.14 -2.62741 0
-136.515 -2.62649 0
-134.89 -2.62629 0
-133.265 -2.62383 0
-131.64 -2.62045 0
-130.015 -2.61946 0
-128.388 -2.61938 0
-126.762 -2.61739 0
-125.135 -2.61795 0
-123.51 -2.6177 0
-121.885 -2.61786 0
-120.259 -2.61706 0
-118.633 -2.61607 0
-117.009 -2.615 0
-115.385 -2.61634 0
-113.76 -2.61651 0
-112.133 -2.61696 0
-110.507 -2.61445 0
-108.883 -2.61284 0
-107.259 -2.61265 0
-105.632 -2.61218 0
-104.006 -2.61171 0
-102.382 -2.60985 0
-100.756 -2.60975 0
-99.1302 -2.60803 0
-97.5054 -2.60891 0
-95.8792 -2.60954 0
-94.2533 -2.60807 0
-92.6292 -2.60709 0
-91.0017 -2.6075 0
-89.3765 -2.60544 0
-87.7514 -2.60415 0
-86.1257 -2.60702 0
-84.5019 -2.6054 0
-82.8784 -2.60537 0
-81.2519 -2.60494 0
-79.6271 -2.60618 0
-78.0005 -2.60174 0
-76.3747 -2.60164 0
-74.7498 -2.60312 0
-73.1254 -2.60298 0
-71.4991 -2.60168 0
-69.8736 -2.60057 0
-68.2482 -2.60027 0
-66.6236 -2.59867 0
-64.9988 -2.5974 0
-63.3744 -2.59783 0
-61.7489 -2.59844 0
-60.1245 -2.5972 0
-58.4995 -2.59623 0
-56.8749 -2.59774 0
-55.2505 -2.59964 0
-53.6253 -2.59643 0
-52.0003 -2.59558 0
-50.3739 -2.59365 0
-48.7488 -2.59679 0
-47.1219 -2.59658 0
-45.4981 -2.59386 0
-43.8756 -2.59189 0
-42.2497 -2.59229 0
-40.6252 -2.59224 0
-39.0006 -2.5938 0
-37.3739 -2.59433 0
-35.7467 -2.59506 0
-34.1223 -2.5919 0
-32.4998 -2.59145 0
-30.8746 -2.58997 0
-29.2501 -2.59074 0
-27.6237 -2.59181 0
-25.9991 -2.59061 0
-24.3777 -2.58809 0
-22.7538 -2.58739 0
-21.1289 -2.58957 0
-19.5033 -2.59005 0
-17.8769 -2.58807 0
-16.2517 -2.58573 0
-14.6265 -2.58821 0
-13.0022 -2.58776 0
-11.3754 -2.58819 0
-9.74985 -2.58933 0
-8.12534 -2.58951 0
-6.50026 -2.58851 0
-4.87611 -2.58782 0
-3.24917 -2.58723 0
-1.62653 -2.58812 0
0 -2.58505 0
-1104.17 63.2228 0
-1103.79 56.2221 0
-1103.55 49.6596 0
-1103.27 43.3946 0
-1102.99 37.4108 0
-1102.71 31.7022 0
-1102.41 26.2806 0
-1102.04 21.1566 0
-1101.61 16.3653 0
-1101.12 11.9459 0
-1100.6 7.91196 0
-1100.05 4.26061 0
-1099.49 0.982643 0
-1098.9 -1.93725 0
-1098.3 -4.51868 0
-1097.67 -6.78536 0
-1097.02 -8.76248 0
-1096.35 -10.4762 0
-1095.64 -11.9507 0
-1094.91 -13.2101 0
-1094.14 -14.2752 0
-1093.35 -15.1659 0
-1092.52 -15.8997 0
-1091.65 -16.4922 0
-1090.76 -16.9571 0
-1089.84 -17.3069 0
-1088.89 -17.5532 0
-1087.9 -17.7053 0
-1086.9 -17.7713 0
-1085.86 -17.7595 0
-1084.8 -17.6763 0
-1083.71 -17.5278 0
-1082.59 -17.3193 0
-1081.46 -17.0567 0
-1080.29 -16.7439 0
-1079.11 -16.3853 0
-1077.9 -15.9851 0
-1076.67 -15.5473 0
-1075.41 -15.0753 0
-1074.13 -14.573 0
-1072.83 -14.0438 0
-1071.51 -13.4908 0
-1070.17 -12.9175 0
-1068.81 -12.3266 0
-1067.43 -11.7211 0
-1066.02 -11.1041 0
-1064.6 -10.4784 0
-1063.16 -9.84645 0
-1061.71 -9.21088 0
-1060.23 -8.57344 0
-1058.74 -7.93721 0
-1057.23 -7.30358 0
-1055.71 -6.67521 0
-1054.18 -6.05345 0
-1052.62 -5.43958 0
-1051.06 -4.83581 0
-1049.48 -4.24338 0
-1047.89 -3.66368 0
-1046.29 -3.09754 0
-1044.68 -2.54695 0
-1043.06 -2.01184 0
-1041.43 -1.49379 0
-1039.79 -0.993443 0
-1038.14 -0.511328 0
-1036.48 -0.0481875 0
-1034.82 0.39535 0
-1033.15 0.818653 0
-1031.47 1.22182 0
-1029.79 1.60438 0
-1028.1 1.96641 0
-1026.4 2.30711 0
-1024.71 2.62721 0
-1023.01 2.92573 0
-1021.3 3.20311 0
-1019.59 3.45978 0
-1017.88 3.6957 0
-1016.17 3.91092 0
-1014.46 4.106 0
-1012.74 4.28119 0
-1011.03 4.43695 0
-1009.31 4.57285 0
-1007.59 4.68999 0
-1005.88 4.78854 0
-1004.16 4.86867 0
-1002.44 4.93119 0
-1000.73 4.97671 0
-999.014 5.00579 0
-997.301 5.01877 0
-995.589 5.01603 0
-993.879 4.99878 0
-992.171 4.96733 0
-990.465 4.92179 0
-988.76 4.86359 0
-987.059 4.79265 0
-985.359 4.70986 0
-983.663 4.61572 0
-981.968 4.51139 0
-980.277 4.39729 0
-978.588 4.273 0
-976.902 4.14057 0
-975.219 4.00055 0
-973.538 3.85256 0