<?xml version="1.0"?>
<VTKFile type="StructuredGrid"  version="0.1" byte_order="LittleEndian" compressor="vtkZLibDataCompressor">
  <StructuredGrid WholeExtent="0 700 0 30 0 0">
    <Piece Extent="0 700 0 30 0 0">
      <PointData Vectors="Velocity">
        <DataArray type="Float32" Name="Velocity" NumberOfComponents="3" format="ascii">
-1086.03 54.3223 0
-1086.26 47.939 0
-1086.55 41.7432 0
-1086.88 35.8593 0
-1087.17 30.3217 0
-1087.39 25.0439 0
-1087.62 19.9646 0
-1087.89 15.1731 0
-1088.17 10.7577 0
-1088.42 6.73468 0
-1088.64 3.0971 0
-1088.83 -0.166633 0
-1088.96 -3.07123 0
-1089.05 -5.63506 0
-1089.06 -7.88073 0
-1089.01 -9.83373 0
-1088.88 -11.5179 0
-1088.68 -12.9593 0
-1088.39 -14.1797 0
-1088.03 -15.2015 0
-1087.6 -16.045 0
-1087.09 -16.7284 0
-1086.51 -17.2688 0
-1085.88 -17.6804 0
-1085.18 -17.9771 0
-1084.42 -18.1717 0
-1083.62 -18.2742 0
-1082.76 -18.2946 0
-1081.86 -18.2421 0
-1080.91 -18.1235 0
-1079.93 -17.9455 0
-1078.9 -17.7146 0
-1077.84 -17.4368 0
-1076.75 -17.1165 0
-1075.62 -16.7583 0
-1074.46 -16.3665 0
-1073.26 -15.945 0
-1072.04 -15.4974 0
-1070.79 -15.0269 0
-1069.51 -14.5374 0
-1068.2 -14.0312 0
-1066.86 -13.5126 0
-1065.5 -12.983 0
-1064.12 -12.4452 0
-1062.71 -11.902 0
-1061.27 -11.3556 0
-1059.82 -10.8083 0
-1058.34 -10.2632 0
-1056.85 -9.72077 0
-1055.33 -9.18372 0
-1053.8 -8.65376 0
-1052.24 -8.13245 0
-1050.67 -7.62112 0
-1049.09 -7.1209 0
-1047.49 -6.63383 0
-1045.88 -6.16007 0
-1044.25 -5.70058 0
-1042.61 -5.25723 0
-1040.96 -4.83014 0
-1039.3 -4.42028 0
-1037.63 -4.02871 0
-1035.95 -3.65471 0
-1034.27 -3.29905 0
-1032.57 -2.96287 0
-1030.87 -2.64533 0
-1029.17 -2.34763 0
-1027.45 -2.06937 0
-1025.74 -1.81035 0
-1024.02 -1.57142 0
-1022.29 -1.35112 0
-1020.57 -1.15013 0
-1018.84 -0.968678 0
-1017.11 -0.805354 0
-1015.38 -0.661175 0
-1013.65 -0.534349 0
-1011.92 -0.425712 0
-1010.19 -0.334346 0
-1008.45 -0.260354 0
-1006.72 -0.202216 0
-1005 -0.16079 0
-1003.27 -0.134517 0
-1001.55 -0.12288 0
-999.823 -0.12521 0
-998.102 -0.1412 0
-996.385 -0.170768 0
-994.671 -0.212772 0
-992.96 -0.267055 0
-991.253 -0.331851 0
-989.548 -0.407742 0
-987.848 -0.493754 0
-986.151 -0.588952 0
-984.458 -0.692705 0
-982.769 -0.804848 0
-981.084 -0.923379 0
-979.403 -1.05001 0
-977.726 -1.183 0
-976.053 -1.32093 0
-974.384 -1.46381 0
-972.72 -1.61146 0
-971.059 -1.76261 0
-969.402 -1.91712 0
-967.749 -2.07472 0
-966.101 -2.23379 0
-964.455 -2.39502 0
-962.814 -2.55711 0
-961.176 -2.72001 0
-959.542 -2.88342 0
-957.912 -3.0463 0
-956.285 -3.20868 0
-954.661 -3.36946 0
-953.04 -3.52914 0
-951.422 -3.68687 0
-949.807 -3.84205 0
-948.196 -3.9956 0
-946.586 -4.1461 0
-944.979 -4.2933 0
-943.375 -4.43702 0
-941.773 -4.5767 0
-940.172 -4.71325 0
-938.574 -4.84464 0
-936.978 -4.97268 0
-935.384 -5.09578 0
-933.791 -5.21429 0
-932.198 -5.32741 0
-930.608 -5.43687 0
-929.019 -5.54093 0
-927.431 -5.63973 0
-925.844 -5.73312 0
-924.258 -5.82169 0
-922.672 -5.90559 0
-921.087 -5.98388 0
-919.502 -6.05653 0
-917.919 -6.12394 0
-916.335 -6.18616 0
-914.752 -6.24375 0
-913.169 -6.2952 0
-911.585 -6.34193 0
-910.002 -6.38393 0
-908.418 -6.42116 0
-906.834 -6.45208 0
-905.249 -6.47966 0
-903.664 -6.50165 0
-902.08 -6.51964 0
-900.494 -6.53216 0
-898.906 -6.54192 0
-897.319 -6.54689 0
-895.733 -6.54769 0
-894.145 -6.54468 0
-892.556 -6.53716 0
-890.966 -6.52596 0
-889.375 -6.51187 0
-887.784 -6.49489 0
-886.19 -6.47347 0
-884.596 -6.44987 0
-883.002 -6.4232 0
-881.407 -6.39392 0
-879.81 -6.36115 0
-878.212 -6.32659 0
-876.614 -6.29048 0
-875.014 -6.25123 0
-873.414 -6.21069 0
-871.811 -6.16763 0
-870.208 -6.12321 0
-868.605 -6.07786 0
-867 -6.02989 0
-865.393 -5.98231 0
-863.786 -5.93223 0
-862.178 -5.88126 0
-860.569 -5.8306 0
-858.959 -5.77982 0
-857.349 -5.72747 0
-855.737 -5.67476 0
-854.123 -5.6218 0
-852.51 -5.56921 0
-850.896 -5.51677 0
-849.279 -5.46395 0
-847.663 -5.4114 0
-846.047 -5.35804 0
-844.429 -5.30687 0
-842.809 -5.25462 0
-841.189 -5.20444 0
-839.57 -5.15384 0
-837.949 -5.10481 0
-836.327 -5.05605 0
-834.706 -5.00912 0
-833.083 -4.96163 0
-831.46 -4.91732 0
-829.837 -4.87195 0
-828.213 -4.82845 0
-826.588 -4.7862 0
-824.963 -4.74447 0
-823.338 -4.7052 0
-821.712 -4.6677 0
-820.086 -4.63111 0
-818.46 -4.59535 0
-816.832 -4.56208 0
-815.205 -4.5295 0
-813.578 -4.49736 0
-811.951 -4.46856 0
-810.323 -4.43992 0
-808.696 -4.41279 0
-807.067 -4.38773 0
-805.439 -4.36511 0
-803.812 -4.34307 0
-802.184 -4.32202 0
-800.556 -4.30283 0
-798.928 -4.28581 0
-797.3 -4.26983 0
-795.672 -4.25507 0
-794.044 -4.24218 0
-792.416 -4.23116 0
-790.788 -4.22169 0
-789.16 -4.21328 0
-787.532 -4.2063 0
-785.906 -4.19928 0
-784.278 -4.19524 0
-782.651 -4.19235 0
-781.024 -4.18869 0
-779.398 -4.18768 0
-777.772 -4.18741 0
-776.145 -4.18872 0
-774.519 -4.18969 0
-772.894 -4.19491 0
-771.269 -4.19937 0
-769.644 -4.20498 0
-768.018 -4.21206 0
-766.394 -4.21913 0
-764.77 -4.22677 0
-763.146 -4.2359 0
-761.521 -4.24507 0
-759.898 -4.25504 0
-758.274 -4.26626 0
-756.651 -4.27886 0
-755.027 -4.29109 0
-753.405 -4.3034 0
-751.782 -4.31753 0
-750.161 -4.33161 0
-748.54 -4.34553 0
-746.919 -4.36035 0
-745.297 -4.37404 0
-743.676 -4.38962 0
-742.057 -4.40506 0
-740.437 -4.42071 0
-738.818 -4.43748 0
-737.199 -4.45407 0
-735.58 -4.46876 0
-733.96 -4.48494 0
-732.342 -4.50035 0
-730.724 -4.51751 0
-729.105 -4.53365 0
-727.488 -4.54868 0
-725.869 -4.56467 0
-724.252 -4.58084 0
-722.635 -4.59567 0
-721.018 -4.61136 0
-719.401 -4.62617 0
-717.784 -4.64256 0
-716.166 -4.65716 0
-714.55 -4.67212 0
-712.935 -4.68576 0
-711.32 -4.6998 0
-709.704 -4.71498 0
-708.089 -4.72814 0
-706.473 -4.74125 0
-704.856 -4.754 0
-703.24 -4.76632 0
-701.625 -4.77672 0
-700.01 -4.78954 0
-698.395 -4.80043 0
-696.782 -4.8125 0
-695.167 -4.82302 0
-693.553 -4.83181 0
-691.938 -4.84315 0
-690.324 -4.85173 0
-688.709 -4.86063 0
-687.095 -4.86696 0
-685.481 -4.87414 0
-683.866 -4.88129 0
-682.253 -4.88697 0
-680.639 -4.89495 0
-679.024 -4.90147 0
-677.41 -4.90683 0
-675.795 -4.9126 0
-674.181 -4.91666 0
-672.566 -4.92166 0
-670.952 -4.92455 0
-669.337 -4.92987 0
-667.723 -4.93245 0
-666.108 -4.93543 0
-664.493 -4.93711 0
-662.878 -4.94026 0
-661.263 -4.94039 0
-659.648 -4.94027 0
-658.036 -4.94206 0
-656.42 -4.94287 0
-654.805 -4.9432 0
-653.192 -4.94177 0
-651.576 -4.94149 0
-649.963 -4.94229 0
-648.348 -4.94068 0
-646.732 -4.93826 0
-645.116 -4.93633 0
-643.5 -4.93374 0
-641.886 -4.93102 0
-640.271 -4.93089 0
-638.654 -4.92648 0
-637.039 -4.92298 0
-635.424 -4.92095 0
-633.809 -4.91522 0
-632.194 -4.91333 0
-630.577 -4.90814 0
-628.961 -4.90505 0
-627.346 -4.89985 0
-625.73 -4.89627 0
-624.113 -4.89119 0
-622.496 -4.8853 0
-620.881 -4.8811 0
-619.265 -4.87561 0
-617.648 -4.87047 0
-616.032 -4.86456 0
-614.416 -4.86115 0
-612.799 -4.85323 0
-611.181 -4.84998 0
-609.565 -4.84432 0
-607.949 -4.83706 0
-606.33 -4.83227 0
-604.712 -4.82565 0
-603.096 -4.8189 0
-601.479 -4.81496 0
-599.861 -4.81001 0
-598.243 -4.80543 0
-596.627 -4.7995 0
-595.009 -4.79524 0
-593.39 -4.79093 0
-591.774 -4.7844 0
-590.156 -4.7799 0
-588.538 -4.77378 0
-586.92 -4.76829 0
-585.302 -4.76356 0
-583.684 -4.75826 0
-582.067 -4.75452 0
-580.449 -4.751 0
-578.831 -4.7447 0
-577.214 -4.74161 0
-575.595 -4.73527 0
-573.978 -4.73091 0
-572.357 -4.72788 0
-570.74 -4.72436 0
-569.121 -4.7215 0
-567.503 -4.71621 0
-565.885 -4.71366 0
-564.268 -4.71139 0
-562.65 -4.70752 0
-561.029 -4.70404 0
-559.411 -4.70162 0
-557.793 -4.69778 0
-556.174 -4.69502 0
-554.554 -4.69324 0
-552.936 -4.69228 0
-551.319 -4.69033 0
-549.699 -4.68742 0
-548.082 -4.68547 0
-546.463 -4.68288 0
-544.844 -4.6817 0
-543.227 -4.68201 0
-541.609 -4.68069 0
-539.989 -4.67896 0
-538.371 -4.67713 0
-536.752 -4.67563 0
-535.133 -4.67602 0
-533.515 -4.67526 0
-531.898 -4.67538 0
-530.279 -4.67477 0
-528.66 -4.67433 0
-527.043 -4.67442 0
-525.425 -4.67308 0
-523.807 -4.67401 0
-522.188 -4.67372 0
-520.571 -4.67392 0
-518.952 -4.67526 0
-517.335 -4.67622 0
-515.717 -4.6769 0
-514.1 -4.67827 0
-512.481 -4.6766 0
-510.863 -4.68032 0
-509.243 -4.67947 0
-507.626 -4.6841 0
-506.009 -4.68334 0
-504.391 -4.68437 0
-502.774 -4.68668 0
-501.158 -4.68588 0
-499.54 -4.68858 0
-497.921 -4.68962 0
-496.304 -4.69255 0
-494.687 -4.69282 0
-493.07 -4.69466 0
-491.451 -4.69528 0
-489.833 -4.69921 0
-488.216 -4.70169 0
-486.6 -4.70268 0
-484.981 -4.70567 0
-483.363 -4.70755 0
-481.748 -4.70994 0
-480.128 -4.71254 0
-478.511 -4.71383 0
-476.894 -4.71554 0
-475.276 -4.71739 0
-473.658 -4.72021 0
-472.041 -4.71993 0
-470.423 -4.72374 0
-468.806 -4.72457 0
-467.19 -4.72672 0
-465.573 -4.73076 0
-463.957 -4.73105 0
-462.341 -4.73277 0
-460.723 -4.73459 0
-459.105 -4.73706 0
-457.486 -4.73873 0
-455.87 -4.74061 0
-454.254 -4.74325 0
-452.638 -4.74642 0
-451.02 -4.74682 0
-449.403 -4.74905 0
-447.786 -4.75144 0
-446.169 -4.755 0
-444.552 -4.75588 0
-442.935 -4.75813 0
-441.317 -4.75996 0
-439.701 -4.76284 0
-438.085 -4.76357 0
-436.467 -4.76461 0
-434.849 -4.76723 0
-433.231 -4.76964 0
-431.616 -4.77208 0
-430.001 -4.77118 0
-428.383 -4.77329 0
-426.767 -4.77676 0
-425.151 -4.77736 0
-423.534 -4.77781 0
-421.916 -4.77986 0
-420.3 -4.7811 0
-418.684 -4.78138 0
-417.068 -4.78379 0
-415.451 -4.7849 0
-413.832 -4.78625 0
-412.216 -4.78598 0
-410.599 -4.78873 0
-408.98 -4.78801 0
-407.364 -4.78701 0
-405.746 -4.79071 0
-404.132 -4.79109 0
-402.514 -4.79024 0
-400.897 -4.79027 0
-399.278 -4.79096 0
-397.663 -4.79259 0
-396.049 -4.79169 0
-394.43 -4.79183 0
-392.813 -4.79155 0
-391.194 -4.79665 0
-389.58 -4.79713 0
-387.963 -4.79766 0
-386.349 -4.79703 0
-384.73 -4.79819 0
-383.113 -4.79839 0
-381.497 -4.79617 0
-379.882 -4.79924 0
-378.264 -4.7979 0
-376.648 -4.80133 0
-375.03 -4.80114 0
-373.417 -4.8 0
-371.8 -4.80007 0
-370.181 -4.79969 0
-368.565 -4.79728 0
-366.949 -4.79294 0
-365.332 -4.79496 0
-363.715 -4.79432 0
-362.098 -4.79572 0
-360.481 -4.79685 0
-358.866 -4.79618 0
-357.249 -4.79424 0
-355.631 -4.79476 0
-354.011 -4.79326 0
-352.395 -4.79415 0
-350.778 -4.79213 0
-349.161 -4.7954 0
-347.544 -4.79406 0
-345.929 -4.7934 0
-344.313 -4.793 0
-342.696 -4.79486 0
-341.078 -4.79233 0
-339.462 -4.79094 0
-337.845 -4.79252 0
-336.229 -4.79157 0
-334.614 -4.7905 0
-332.996 -4.79075 0
-331.379 -4.79102 0
-329.761 -4.79216 0
-328.144 -4.79004 0
-326.528 -4.79147 0
-324.91 -4.78978 0
-323.293 -4.78941 0
-321.674 -4.78939 0
-320.059 -4.79152 0
-318.443 -4.78984 0
-316.827 -4.78775 0
-315.211 -4.78641 0
-313.594 -4.78595 0
-311.976 -4.7881 0
-310.36 -4.7873 0
-308.742 -4.7863 0
-307.125 -4.78601 0
-305.508 -4.78584 0
-303.891 -4.78618 0
-302.273 -4.78502 0
-300.658 -4.78748 0
-299.043 -4.78537 0
-297.425 -4.78586 0
-295.808 -4.78264 0
-294.194 -4.78118 0
-292.575 -4.78195 0
-290.957 -4.78249 0
-289.343 -4.7785 0
-287.725 -4.77932 0
-286.11 -4.77976 0
-284.489 -4.77886 0
-282.872 -4.77784 0
-281.256 -4.77776 0
-279.64 -4.77603 0
-278.023 -4.77983 0
-276.405 -4.77781 0
-274.788 -4.77759 0
-273.173 -4.77789 0
-271.557 -4.77719 0
-269.937 -4.77792 0
-268.322 -4.77914 0
-266.705 -4.77644 0
-265.087 -4.77709 0
-263.469 -4.77871 0
-261.853 -4.77887 0
-260.239 -4.77851 0
-258.621 -4.77899 0
-257.004 -4.77476 0
-255.387 -4.77712 0
-253.771 -4.77754 0
-252.153 -4.77839 0
-250.536 -4.78167 0
-248.919 -4.78038 0
-247.303 -4.77997 0
-245.687 -4.77987 0
-244.071 -4.77971 0
-242.453 -4.78086 0
-240.836 -4.78005 0
-239.219 -4.78069 0
-237.605 -4.78091 0
-235.984 -4.77919 0
-234.37 -4.7797 0
-232.751 -4.78132 0
-231.137 -4.7812 0
-229.521 -4.78052 0
-227.903 -4.78194 0
-226.285 -4.77758 0
-224.669 -4.77938 0
-223.051 -4.77967 0
-221.434 -4.77975 0
-219.818 -4.77971 0
-218.203 -4.78147 0
-216.586 -4.78256 0
-214.97 -4.77971 0
-213.353 -4.78063 0
-211.737 -4.78119 0
-210.119 -4.78392 0
-208.503 -4.78347 0
-206.887 -4.78534 0
-205.27 -4.78478 0
-203.655 -4.78476 0
-202.035 -4.7863 0
-200.419 -4.78552 0
-198.803 -4.78632 0
-197.186 -4.78677 0
-195.57 -4.7854 0
-193.953 -4.78475 0
-192.338 -4.78504 0
-190.722 -4.78427 0
-189.106 -4.78652 0
-187.488 -4.78523 0
-185.874 -4.78402 0
-184.257 -4.78796 0
-182.639 -4.78707 0
-181.024 -4.78687 0
-179.406 -4.78831 0
-177.787 -4.78875 0
-176.172 -4.79025 0
-174.557 -4.78807 0
-172.938 -4.78905 0
-171.323 -4.78948 0
-169.707 -4.78946 0
-168.092 -4.78899 0
-166.474 -4.78644 0
-164.857 -4.78891 0
-163.242 -4.78603 0
-161.627 -4.78666 0
-160.009 -4.78769 0
-158.393 -4.78946 0
-156.776 -4.78977 0
-155.16 -4.78847 0
-153.545 -4.78857 0
-151.928 -4.78806 0
-150.311 -4.78765 0
-148.695 -4.78869 0
-147.078 -4.78799 0
-145.461 -4.79004 0
-143.846 -4.78901 0
-142.229 -4.78903 0
-140.612 -4.78954 0
-138.995 -4.78838 0
-137.378 -4.78949 0
-135.764 -4.78867 0
-134.146 -4.78739 0
-132.527 -4.78583 0
-130.911 -4.78798 0
-129.295 -4.78921 0
-127.678 -4.78865 0
-126.064 -4.78849 0
-124.448 -4.79002 0
-122.832 -4.78787 0
-121.216 -4.79112 0
-119.599 -4.78927 0
-117.981 -4.78851 0
-116.365 -4.7898 0
-114.75 -4.78804 0
-113.134 -4.78848 0
-111.518 -4.78797 0
-109.9 -4.78822 0
-108.281 -4.78855 0
-106.664 -4.7886 0
-105.047 -4.78899 0
-103.433 -4.79157 0
-101.817 -4.78961 0
-100.2 -4.78989 0
-98.5848 -4.78954 0
-96.9692 -4.78928 0
-95.3534 -4.79095 0
-93.7356 -4.79001 0
-92.1202 -4.79258 0
-90.5039 -4.79138 0
-88.8892 -4.79217 0
-87.2745 -4.79151 0
-85.6565 -4.78975 0
-84.0379 -4.79096 0
-82.4219 -4.78887 0
-80.8064 -4.78889 0
-79.1901 -4.79038 0
-77.5761 -4.79047 0
-75.9577 -4.78894 0
-74.3423 -4.7894 0
-72.7272 -4.79229 0
-71.1106 -4.78861 0
-69.4944 -4.7902 0
-67.8778 -4.79343 0
-66.2627 -4.79212 0
-64.6461 -4.7926 0
-63.0303 -4.79371 0
-61.412 -4.7917 0
-59.7959 -4.79072 0
-58.1818 -4.79076 0
-56.5662 -4.78957 0
-54.9485 -4.79094 0
-53.3336 -4.79218 0
-51.7184 -4.78986 0
-50.1005 -4.78997 0
-48.4821 -4.79043 0
-46.8658 -4.79027 0
-45.25 -4.79016 0
-43.6341 -4.79163 0
-42.02 -4.78887 0
-40.4055 -4.78898 0
-38.789 -4.78898 0
-37.1715 -4.78902 0
-35.5557 -4.78719 0
-33.9397 -4.78794 0
-32.3226 -4.7884 0
-30.7084 -4.78886 0
-29.092 -4.7887 0
-27.4778 -4.78892 0
-25.8603 -4.78818 0
-24.2439 -4.78692 0
-22.6273 -4.78779 0
-21.0093 -4.7875 0
-19.3955 -4.78744 0
-17.7799 -4.78786 0
-16.1635 -4.78683 0
-14.5481 -4.78752 0
-12.9307 -4.78833 0
-11.3141 -4.78931 0
-9.69621 -4.78649 0
-8.08175 -4.78624 0
-6.46456 -4.78746 0
-4.84834 -4.78877 0
-3.23289 -4.78784 0
-1.61759 -4.78542 0
0 -4.78469 0
-1092.42 54.5915 0
-1092.49 48.148 0
-1092.53 41.9247 0
-1092.53 36.0223 0
-1092.53 30.4696 0
-1092.58 25.1832 0
-1092.61 20.0972 0
-1092.55 15.2988 0
-1092.44 10.8762 0
-1092.3 6.8504 0
-1092.15 3.21627 0
-1091.96 -0.0353868 0
-1091.75 -2.91804 0
-1091.5 -5.45017 0
-1091.21 -7.65534 0
-1090.87 -9.55897 0
-1090.48 -11.189 0
-1090.03 -12.5723 0
-1089.53 -13.7332 0
-1088.98 -14.6954 0
-1088.37 -15.48 0
-1087.71 -16.1062 0
-1087 -16.5917 0
-1086.24 -16.9513 0
-1085.43 -17.1985 0
-1084.58 -17.3463 0
-1083.68 -17.4044 0
-1082.75 -17.3835 0
-1081.78 -17.2911 0
-1080.77 -17.135 0
-1079.73 -16.9216 0
-1078.65 -16.6567 0
-1077.55 -16.346 0
-1076.41 -15.9944 0
-1075.25 -15.6058 0
-1074.06 -15.1845 0
-1072.84 -14.7344 0
-1071.59 -14.2588 0
-1070.32 -13.7615 0
-1069.02 -13.246 0
-1067.69 -12.7149 0
-1066.35 -12.171 0
-1064.98 -11.6178 0
-1063.59 -11.0571 0
-1062.17 -10.4919 0
-1060.74 -9.92404 0
-1059.28 -9.3564 0
-1057.81 -8.79159 0
-1056.32 -8.23077 0
-1054.81 -7.67578 0
-1053.28 -7.12869 0
-1051.74 -6.59141 0
-1050.18 -6.06496 0
-1048.61 -5.55045 0
-1047.02 -5.04946 0
-1045.42 -4.56318 0
-1043.81 -4.09219 0
-1042.19 -3.63786 0
-1040.55 -3.20097 0
-1038.91 -2.78153 0
-1037.26 -2.38119 0
-1035.6 -1.99948 0
-1033.93 -1.63656 0
-1032.26 -1.29337 0
-1030.57 -0.970568 0
-1028.89 -0.667602 0
-1027.19 -0.384799 0
-1025.5 -0.12199 0
-1023.8 0.120522 0
-1022.09 0.343696 0
-1020.38 0.546897 0
-1018.68 0.730482 0
-1016.96 0.894763 0
-1015.25 1.04009 0
-1013.54 1.16736 0
-1011.82 1.27564 0
-1010.11 1.3668 0
-1008.39 1.44022 0
-1006.68 1.4974 0
-1004.97 1.53757 0
-1003.25 1.56231 0
-1001.54 1.57207 0
-999.834 1.56714 0
-998.128 1.54869 0
-996.423 1.51672 0
-994.721 1.47168 0
-993.021 1.41465 0
-991.324 1.34664 0
-989.63 1.26755 0
-987.939 1.17808 0
-986.251 1.0795 0
-984.566 0.97232 0
-982.884 0.856847 0
-981.206 0.733986 0
-979.532 0.604138 0
-977.861 0.467597 0
-976.193 0.325461 0
-974.528 0.178835 0
-972.868 0.0276683 0
-971.21 -0.126823 0
-969.556 -0.285024 0
-967.906 -0.446317 0
-966.259 -0.608863 0
-964.615 -0.773397 0
-962.974 -0.939233 0
-961.337 -1.10567 0
-959.703 -1.27199 0
-958.072 -1.43787 0
-956.444 -1.60317 0
-954.819 -1.76732 0
-953.197 -1.92981 0
-951.577 -2.09027 0
-949.96 -2.24832 0
-948.345 -2.40381 0
-946.733 -2.55694 0
-945.122 -2.70659 0
-943.514 -2.85253 0
-941.909 -2.99429 0
-940.304 -3.13186 0
-938.702 -3.26612 0
-937.101 -3.39513 0
-935.502 -3.51962 0
-933.904 -3.63932 0
-932.308 -3.75433 0
-930.713 -3.86473 0
-929.118 -3.96984 0
-927.525 -4.06905 0
-925.933 -4.16387 0
-924.342 -4.25354 0
-922.752 -4.33773 0
-921.161 -4.41659 0
-919.572 -4.48961 0
-917.982 -4.55769 0
-916.393 -4.6199 0
-914.805 -4.67777 0
-913.216 -4.72885 0
-911.629 -4.77627 0
-910.04 -4.81777 0
-908.451 -4.85467 0
-906.862 -4.88536 0
-905.273 -4.91213 0
-903.684 -4.93449 0
-902.094 -4.95221 0
-900.504 -4.96405 0
-898.914 -4.97294 0
-897.323 -4.97763 0
-895.731 -4.97777 0
-894.139 -4.9735 0
-892.547 -4.96545 0
-890.953 -4.95413 0
-889.359 -4.93935 0
-887.764 -4.92062 0
-886.168 -4.89812 0
-884.571 -4.8741 0
-882.974 -4.84678 0
-881.376 -4.81623 0
-879.777 -4.7831 0
-878.177 -4.7472 0
-876.577 -4.70923 0
-874.975 -4.66982 0
-873.373 -4.62834 0
-871.768 -4.58422 0
-870.164 -4.53941 0
-868.559 -4.49266 0
-866.953 -4.44383 0
-865.345 -4.39498 0
-863.737 -4.34425 0
-862.128 -4.2921 0
-860.518 -4.24104 0
-858.908 -4.18907 0
-857.297 -4.13652 0
-855.684 -4.08255 0
-854.071 -4.02869 0
-852.458 -3.97521 0
-850.843 -3.92131 0
-849.227 -3.868 0
-847.612 -3.8146 0
-845.995 -3.76077 0
-844.378 -3.70842 0
-842.759 -3.65638 0
-841.141 -3.60461 0
-839.521 -3.55412 0
-837.901 -3.50369 0
-836.28 -3.45474 0
-834.659 -3.40687 0
-833.038 -3.35952 0
-831.416 -3.31408 0
-829.794 -3.26886 0
-828.171 -3.22531 0
-826.547 -3.18169 0
-824.923 -3.14082 0
-823.299 -3.1006 0
-821.675 -3.06202 0
-820.051 -3.02604 0
-818.426 -2.98941 0
-816.8 -2.95519 0
-815.174 -2.92263 0
-813.548 -2.89102 0
-811.923 -2.86191 0
-810.296 -2.83354 0
-808.67 -2.80648 0
-807.044 -2.7808 0
-805.417 -2.75865 0
-803.79 -2.73613 0
-802.164 -2.71521 0
-800.537 -2.69534 0
-798.912 -2.67786 0
-797.285 -2.66306 0
-795.658 -2.64851 0
-794.032 -2.63502 0
-792.405 -2.62391 0
-790.779 -2.6142 0
-789.152 -2.60568 0
-787.525 -2.59921 0
-785.899 -2.59251 0
-784.274 -2.58901 0
-782.648 -2.58581 0
-781.023 -2.58317 0
-779.398 -2.58258 0
-777.772 -2.58193 0
-776.147 -2.58411 0
-774.523 -2.58533 0
-772.897 -2.58979 0
-771.273 -2.59472 0
-769.649 -2.60017 0
-768.025 -2.60746 0
-766.401 -2.61487 0
-764.777 -2.62378 0
-763.154 -2.63243 0
-761.53 -2.64154 0
-759.907 -2.65243 0
-758.285 -2.66383 0
-756.662 -2.67619 0
-755.04 -2.68923 0
-753.418 -2.70203 0
-751.797 -2.71541 0
-750.175 -2.72992 0
-748.553 -2.7447 0
-746.933 -2.75872 0
-745.312 -2.77353 0
-743.692 -2.78953 0
-742.072 -2.80485 0
-740.453 -2.82058 0
-738.833 -2.83806 0
-737.214 -2.85472 0
-735.595 -2.87011 0
-733.976 -2.88568 0
-732.357 -2.90247 0
-730.739 -2.91883 0
-729.121 -2.93477 0
-727.503 -2.9516 0
-725.886 -2.96843 0
-724.267 -2.98337 0
-722.65 -2.99909 0
-721.034 -3.01478 0
-719.417 -3.02922 0
-717.799 -3.04579 0
-716.182 -3.06118 0
-714.565 -3.07609 0
-712.95 -3.0908 0
-711.334 -3.10422 0
-709.718 -3.11917 0
-708.102 -3.13276 0
-706.486 -3.14535 0
-704.87 -3.15792 0
-703.254 -3.17068 0
-701.638 -3.18234 0
-700.022 -3.195 0
-698.407 -3.20568 0
-696.792 -3.21749 0
-695.178 -3.22777 0
-693.562 -3.23791 0
-691.947 -3.24802 0
-690.333 -3.25712 0
-688.718 -3.26452 0
-687.103 -3.27249 0
-685.488 -3.28046 0
-683.873 -3.2867 0
-682.259 -3.29323 0
-680.645 -3.30041 0
-679.03 -3.30661 0
-677.414 -3.313 0
-675.8 -3.31845 0
-674.185 -3.32201 0
-672.57 -3.32682 0
-670.956 -3.33024 0
-669.34 -3.33516 0
-667.725 -3.33869 0
-666.11 -3.34103 0
-664.495 -3.34324 0
-662.881 -3.34453 0
-661.264 -3.34563 0
-659.65 -3.3469 0
-658.035 -3.34723 0
-656.421 -3.34776 0
-654.805 -3.34874 0
-653.19 -3.3475 0
-651.576 -3.34657 0
-649.961 -3.34631 0
-648.345 -3.34559 0
-646.729 -3.34329 0
-645.115 -3.34116 0
-643.499 -3.33876 0
-641.884 -3.33592 0
-640.268 -3.33451 0
-638.653 -3.33126 0
-637.036 -3.32774 0
-635.42 -3.32438 0
-633.804 -3.32047 0
-632.189 -3.31632 0
-630.573 -3.31301 0
-628.957 -3.30897 0
-627.341 -3.3047 0
-625.724 -3.30008 0
-624.108 -3.2938 0
-622.492 -3.28996 0
-620.876 -3.28435 0
-619.26 -3.27954 0
-617.643 -3.27395 0
-616.027 -3.26858 0
-614.411 -3.26433 0
-612.793 -3.25629 0
-611.177 -3.25283 0
-609.559 -3.24747 0
-607.942 -3.24058 0
-606.325 -3.2349 0
-604.708 -3.22965 0
-603.09 -3.22304 0
-601.473 -3.21796 0
-599.856 -3.21211 0
-598.239 -3.20789 0
-596.621 -3.20252 0
-595.005 -3.19696 0
-593.387 -3.19198 0
-591.768 -3.18667 0
-590.151 -3.18137 0
-588.533 -3.17623 0
-586.916 -3.17066 0
-585.299 -3.16596 0
-583.681 -3.16056 0
-582.063 -3.15562 0
-580.445 -3.15201 0
-578.828 -3.14686 0
-577.209 -3.14245 0
-575.591 -3.13758 0
-573.973 -3.13264 0
-572.355 -3.12929 0
-570.736 -3.12729 0
-569.117 -3.12305 0
-567.5 -3.11934 0
-565.881 -3.11519 0
-564.263 -3.11213 0
-562.646 -3.10926 0
-561.028 -3.10612 0
-559.409 -3.10256 0
-557.79 -3.09936 0
-556.171 -3.09617 0
-554.553 -3.09524 0
-552.934 -3.09327 0
-551.317 -3.09175 0
-549.698 -3.08891 0
-548.08 -3.08714 0
-546.462 -3.0862 0
-544.844 -3.0847 0
-543.226 -3.08266 0
-541.606 -3.08244 0
-539.987 -3.08058 0
-538.367 -3.07867 0
-536.751 -3.07799 0
-535.134 -3.07774 0
-533.514 -3.07721 0
-531.897 -3.07613 0
-530.279 -3.07717 0
-528.662 -3.07653 0
-527.043 -3.07596 0
-525.425 -3.07626 0
-523.807 -3.07579 0
-522.189 -3.0753 0
-520.571 -3.07694 0
-518.954 -3.07676 0
-517.335 -3.07888 0
-515.72 -3.08053 0
-514.099 -3.07913 0
-512.481 -3.08025 0
-510.863 -3.08163 0
-509.247 -3.0829 0
-507.629 -3.08504 0
-506.01 -3.08574 0
-504.394 -3.08753 0
-502.775 -3.08829 0
-501.158 -3.08888 0
-499.541 -3.08964 0
-497.923 -3.09321 0
-496.306 -3.09424 0
-494.688 -3.097 0
-493.07 -3.09716 0
-491.453 -3.09817 0
-489.835 -3.10127 0
-488.217 -3.10366 0
-486.601 -3.10505 0
-484.983 -3.10802 0
-483.365 -3.10943 0
-481.748 -3.11193 0
-480.13 -3.11352 0
-478.513 -3.11532 0
-476.895 -3.11876 0
-475.279 -3.12 0
-473.66 -3.12282 0
-472.045 -3.12351 0
-470.427 -3.12703 0
-468.809 -3.1292 0
-467.192 -3.13138 0
-465.575 -3.13318 0
-463.958 -3.13342 0
-462.341 -3.13685 0
-460.724 -3.13732 0
-459.107 -3.13927 0
-457.49 -3.14139 0
-455.872 -3.14471 0
-454.255 -3.14704 0
-452.639 -3.14922 0
-451.023 -3.15106 0
-449.405 -3.15108 0
-447.788 -3.15463 0
-446.171 -3.15677 0
-444.552 -3.15867 0
-442.935 -3.16109 0
-441.319 -3.1635 0
-439.703 -3.16548 0
-438.087 -3.16684 0
-436.47 -3.16718 0
-434.853 -3.17087 0
-433.236 -3.17209 0
-431.619 -3.17589 0
-430.001 -3.17501 0
-428.385 -3.17734 0
-426.769 -3.18006 0
-425.153 -3.18046 0
-423.536 -3.18116 0
-421.92 -3.1831 0
-420.301 -3.18407 0
-418.683 -3.18476 0
-417.067 -3.18778 0
-415.451 -3.18769 0
-413.835 -3.18908 0
-412.217 -3.19079 0
-410.6 -3.19025 0
-408.982 -3.19019 0
-407.365 -3.19168 0
-405.748 -3.19305 0
-404.131 -3.19373 0
-402.514 -3.19291 0
-400.897 -3.1924 0
-399.281 -3.19521 0
-397.665 -3.19697 0
-396.048 -3.1971 0
-394.431 -3.1952 0
-392.813 -3.19622 0
-391.197 -3.19772 0
-389.58 -3.19943 0
-387.965 -3.20004 0
-386.347 -3.19974 0
-384.731 -3.20173 0
-383.114 -3.20241 0
-381.496 -3.20011 0
-379.88 -3.2018 0
-378.264 -3.20172 0
-376.648 -3.20241 0
-375.031 -3.20344 0
-373.413 -3.20207 0
-371.797 -3.20215 0
-370.181 -3.20321 0
-368.565 -3.20132 0
-366.947 -3.19744 0
-365.332 -3.19884 0
-363.715 -3.1982 0
-362.099 -3.19869 0
-360.48 -3.19934 0
-358.863 -3.19892 0
-357.246 -3.19739 0
-355.63 -3.19642 0
-354.013 -3.19642 0
-352.395 -3.19667 0
-350.779 -3.19792 0
-349.162 -3.19646 0
-347.546 -3.19608 0
-345.928 -3.19645 0
-344.311 -3.19605 0
-342.695 -3.19536 0
-341.077 -3.19659 0
-339.46 -3.19454 0
-337.845 -3.19607 0
-336.228 -3.19446 0
-334.612 -3.19442 0
-332.996 -3.19475 0
-331.38 -3.19382 0
-329.762 -3.19401 0
-328.145 -3.1946 0
-326.528 -3.19342 0
-324.91 -3.19231 0
-323.293 -3.19254 0
-321.676 -3.19212 0
-320.06 -3.19464 0
-318.443 -3.19284 0
-316.826 -3.19051 0
-315.209 -3.18963 0
-313.593 -3.18979 0
-311.976 -3.1912 0
-310.36 -3.18958 0
-308.742 -3.18966 0
-307.126 -3.18963 0
-305.507 -3.18934 0
-303.89 -3.18894 0
-302.274 -3.18941 0
-300.658 -3.19034 0
-299.042 -3.19041 0
-297.426 -3.18864 0
-295.809 -3.18721 0
-294.192 -3.18412 0
-292.575 -3.18263 0
-290.957 -3.18412 0
-289.341 -3.18453 0
-287.723 -3.18185 0
-286.105 -3.18285 0
-284.489 -3.18072 0
-282.872 -3.18197 0
-281.254 -3.18123 0
-279.637 -3.18066 0
-278.022 -3.18203 0
-276.405 -3.18152 0
-274.789 -3.18104 0
-273.172 -3.18103 0
-271.555 -3.1795 0
-269.938 -3.18071 0
-268.322 -3.18128 0
-266.706 -3.18088 0
-265.088 -3.18037 0
-263.47 -3.18173 0
-261.853 -3.18343 0
-260.236 -3.18251 0
-258.62 -3.18156 0
-257.003 -3.1799 0
-255.388 -3.18041 0
-253.772 -3.1816 0
-252.155 -3.18061 0
-250.535 -3.18337 0
-248.918 -3.1833 0
-247.303 -3.18288 0
-245.688 -3.18236 0
-244.072 -3.1829 0
-242.455 -3.18241 0
-240.837 -3.18425 0
-239.218 -3.18574 0
-237.603 -3.18398 0
-235.985 -3.18387 0
-234.37 -3.18125 0
-232.753 -3.18432 0
-231.135 -3.18383 0
-229.519 -3.18535 0
-227.903 -3.18459 0
-226.287 -3.18295 0
-224.669 -3.18297 0
-223.053 -3.18337 0
-221.434 -3.18411 0
-219.819 -3.18502 0
-218.203 -3.18463 0
-216.586 -3.18501 0
-214.969 -3.18376 0
-213.354 -3.1831 0
-211.737 -3.18415 0
-210.12 -3.18684 0
-208.505 -3.18723 0
-206.888 -3.18849 0
-205.269 -3.18885 0
-203.654 -3.18836 0
-202.037 -3.18885 0
-200.419 -3.19018 0
-198.803 -3.18998 0
-197.189 -3.18918 0
-195.573 -3.18853 0
-193.956 -3.18823 0
-192.338 -3.1888 0
-190.721 -3.1885 0
-189.105 -3.18952 0
-187.488 -3.18949 0
-185.872 -3.18841 0
-184.255 -3.19049 0
-182.64 -3.19079 0
-181.023 -3.19093 0
-179.405 -3.19294 0
-177.788 -3.1919 0
-176.173 -3.19309 0
-174.556 -3.19161 0
-172.94 -3.19244 0
-171.324 -3.19279 0
-169.707 -3.19261 0
-168.09 -3.19303 0
-166.473 -3.19156 0
-164.857 -3.19177 0
-163.242 -3.19112 0
-161.625 -3.19049 0
-160.01 -3.19305 0
-158.392 -3.19259 0
-156.778 -3.19348 0
-155.161 -3.19256 0
-153.543 -3.19217 0
-151.926 -3.19153 0
-150.311 -3.19121 0
-148.694 -3.19227 0
-147.079 -3.19256 0
-145.462 -3.1927 0
-143.846 -3.1908 0
-142.229 -3.19244 0
-140.614 -3.19201 0
-138.996 -3.1924 0
-137.38 -3.193 0
-135.763 -3.19086 0
-134.145 -3.19012 0
-132.528 -3.18961 0
-130.91 -3.19124 0
-129.294 -3.19276 0
-127.678 -3.1935 0
-126.064 -3.19349 0
-124.448 -3.19332 0
-122.831 -3.19055 0
-121.214 -3.19242 0
-119.597 -3.1926 0
-117.98 -3.19248 0
-116.364 -3.19274 0
-114.748 -3.19385 0
-113.132 -3.1923 0
-111.516 -3.1918 0
-109.9 -3.19187 0
-108.282 -3.19385 0
-106.667 -3.19288 0
-105.05 -3.19285 0
-103.433 -3.1943 0
-101.816 -3.19404 0
-100.201 -3.19302 0
-98.5837 -3.1943 0
-96.9689 -3.19293 0
-95.3519 -3.19451 0
-93.7362 -3.19461 0
-92.1209 -3.19442 0
-90.5053 -3.19575 0
-88.8888 -3.19582 0
-87.2722 -3.19528 0
-85.655 -3.19439 0
-84.0393 -3.19306 0
-82.423 -3.19311 0
-80.8069 -3.19379 0
-79.1911 -3.19395 0
-77.5749 -3.19441 0
-75.9588 -3.1936 0
-74.3433 -3.1946 0
-72.7269 -3.19541 0
-71.1115 -3.19472 0
-69.4946 -3.19503 0
-67.8778 -3.19654 0
-66.2625 -3.19687 0
-64.6464 -3.19686 0
-63.0297 -3.19644 0
-61.4127 -3.19608 0
-59.7967 -3.19411 0
-58.1808 -3.19393 0
-56.5641 -3.19262 0
-54.9499 -3.1937 0
-53.332 -3.19618 0
-51.716 -3.19394 0
-50.1005 -3.19252 0
-48.4831 -3.1946 0
-46.8673 -3.19523 0
-45.2522 -3.19539 0
-43.6352 -3.19601 0
-42.0188 -3.19453 0
-40.4036 -3.19215 0
-38.7874 -3.19082 0
-37.1717 -3.19265 0
-35.5556 -3.19275 0
-33.9396 -3.19223 0
-32.3236 -3.19347 0
-30.7074 -3.19241 0
-29.0921 -3.19129 0
-27.4767 -3.19263 0
-25.8599 -3.19229 0
-24.2435 -3.19233 0
-22.6262 -3.1911 0
-21.0111 -3.19182 0
-19.3943 -3.19235 0
-17.7799 -3.19156 0
-16.1642 -3.19209 0
-14.5483 -3.19147 0
-12.9315 -3.19315 0
-11.3138 -3.1917 0
-9.69782 -3.19132 0
-8.08138 -3.19043 0
-6.46472 -3.18971 0
-4.85002 -3.19085 0
-3.23361 -3.19175 0
-1.61637 -3.19036 0
0 -3.18897 0
-1099.16 55.244 0
-1098.8 48.5882 0
-1098.59 42.387 0
-1098.33 36.4914 0
-1098.07 30.8798 0
-1097.81 25.5473 0
-1097.53 20.5053 0
-1097.18 15.7633 0
-1096.74 11.3605 0
-1096.26 7.33641 0
-1095.74 3.70213 0
-1095.2 0.453303 0
-1094.63 -2.42213 0
-1094.04 -4.94208 0
-1093.44 -7.12894 0
-1092.8 -9.00891 0
-1092.14 -10.6099 0
-1091.46 -11.9594 0
-1090.74 -13.0836 0
-1089.99 -14.0074 0
-1089.2 -14.7523 0
-1088.38 -15.3391 0
-1087.53 -15.7851 0
-1086.64 -16.1067 0
-1085.72 -16.317 0
-1084.76 -16.4289 0
-1083.78 -16.453 0
-1082.76 -16.3992 0
-1081.72 -16.275 0
-1080.65 -16.0884 0
-1079.55 -15.8457 0
-1078.42 -15.5524 0
-1077.27 -15.2141 0
-1076.1 -14.8356 0
-1074.9 -14.4211 0
-1073.67 -13.974 0
-1072.42 -13.4991 0
-1071.15 -12.9993 0
-1069.86 -12.478 0
-1068.54 -11.9395 0
-1067.2 -11.3856 0
-1065.84 -10.8201 0
-1064.47 -10.2454 0
-1063.07 -9.66414 0
-1061.65 -9.07927 0
-1060.21 -8.49232 0
-1058.76 -7.90642 0
-1057.28 -7.3237 0
-1055.8 -6.74583 0
-1054.29 -6.17461 0
-1052.77 -5.61249 0
-1051.24 -5.06061 0
-1049.69 -4.52001 0
-1048.13 -3.99252 0
-1046.55 -3.47898 0
-1044.97 -2.98124 0
-1043.37 -2.49937 0
-1041.77 -2.03428 0
-1040.15 -1.58797 0
-1038.52 -1.16001 0
-1036.89 -0.75109 0
-1035.24 -0.361755 0
-1033.59 0.00763481 0
-1031.94 0.356968 0
-1030.27 0.685772 0
-1028.61 0.993643 0
-1026.93 1.28112 0
-1025.25 1.5479 0
-1023.57 1.794 0
-1021.89 2.02012 0
-1020.2 2.22582 0
-1018.51 2.41141 0
-1016.81 2.57737 0
-1015.12 2.72406 0
-1013.42 2.85157 0
-1011.72 2.96114 0
-1010.03 3.05191 0
-1008.33 3.12537 0
-1006.63 3.18116 0
-1004.93 3.22109 0
-1003.24 3.24479 0
-1001.54 3.25297 0
-999.843 3.24674 0
-998.15 3.22645 0
-996.457 3.19212 0
-994.767 3.1452 0
-993.079 3.08559 0
-991.392 3.01518 0
-989.708 2.93333 0
-988.027 2.84141 0
-986.347 2.73968 0
-984.671 2.62974 0
-982.997 2.51137 0
-981.326 2.38499 0
-979.658 2.25224 0
-977.992 2.11264 0
-976.33 1.96762 0
-974.67 1.8174 0
-973.013 1.6632 0
-971.359 1.50566 0
-969.709 1.34447 0