<?xml version="1.0"?>
<VTKFile type="StructuredGrid"  version="0.1" byte_order="LittleEndian" compressor="vtkZLibDataCompressor">
  <StructuredGrid WholeExtent="0 700 0 30 0 0">
    <Piece Extent="0 700 0 30 0 0">
      <PointData Vectors="Velocity">
        <DataArray type="Float32" Name="Velocity" NumberOfComponents="3" format="ascii">
-1093.45 73.9086 0
-1093.61 66.6561 0
-1093.83 59.5814 0
-1094.09 52.7992 0
-1094.33 46.342 0
-1094.52 40.152 0
-1094.7 34.1761 0
-1094.93 28.4708 0
-1095.17 23.1163 0
-1095.4 18.1412 0
-1095.6 13.5447 0
-1095.78 9.32002 0
-1095.93 5.45755 0
-1096.03 1.94379 0
-1096.09 -1.23867 0
-1096.09 -4.10944 0
-1096.02 -6.69028 0
-1095.9 -9.00186 0
-1095.7 -11.0647 0
-1095.44 -12.8988 0
-1095.12 -14.5227 0
-1094.73 -15.9537 0
-1094.28 -17.2074 0
-1093.78 -18.2982 0
-1093.22 -19.2395 0
-1092.6 -20.0431 0
-1091.94 -20.7203 0
-1091.24 -21.2808 0
-1090.49 -21.7325 0
-1089.69 -22.0847 0
-1088.86 -22.3432 0
-1088 -22.5166 0
-1087.09 -22.6095 0
-1086.16 -22.627 0
-1085.19 -22.5752 0
-1084.19 -22.458 0
-1083.15 -22.2802 0
-1082.09 -22.0454 0
-1080.99 -21.7588 0
-1079.87 -21.4227 0
-1078.71 -21.0424 0
-1077.53 -20.6204 0
-1076.32 -20.1607 0
-1075.08 -19.6665 0
-1073.82 -19.1409 0
-1072.52 -18.5884 0
-1071.21 -18.0107 0
-1069.86 -17.4114 0
-1068.49 -16.7935 0
-1067.1 -16.1593 0
-1065.69 -15.5117 0
-1064.25 -14.8539 0
-1062.79 -14.188 0
-1061.31 -13.5156 0
-1059.81 -12.8399 0
-1058.29 -12.1627 0
-1056.75 -11.4861 0
-1055.2 -10.8116 0
-1053.63 -10.1414 0
-1052.04 -9.47699 0
-1050.43 -8.81944 0
-1048.81 -8.17113 0
-1047.18 -7.53285 0
-1045.53 -6.90657 0
-1043.88 -6.2922 0
-1042.21 -5.69254 0
-1040.52 -5.1067 0
-1038.83 -4.53679 0
-1037.13 -3.98291 0
-1035.42 -3.44619 0
-1033.7 -2.92752 0
-1031.98 -2.42679 0
-1030.25 -1.94577 0
-1028.51 -1.48366 0
-1026.76 -1.04099 0
-1025.01 -0.618305 0
-1023.26 -0.215006 0
-1021.5 0.166904 0
-1019.74 0.528829 0
-1017.97 0.870319 0
-1016.21 1.1906 0
-1014.44 1.49011 0
-1012.66 1.76965 0
-1010.89 2.02896 0
-1009.12 2.26792 0
-1007.34 2.48643 0
-1005.57 2.68512 0
-1003.79 2.86433 0
-1002.02 3.02413 0
-1000.24 3.16472 0
-998.47 3.28698 0
-996.699 3.39098 0
-994.928 3.4769 0
-993.161 3.54593 0
-991.395 3.59755 0
-989.632 3.63259 0
-987.871 3.65161 0
-986.113 3.65532 0
-984.358 3.64383 0
-982.605 3.61721 0
-980.857 3.5769 0
-979.112 3.5234 0
-977.369 3.45695 0
-975.631 3.37798 0
-973.896 3.28664 0
-972.165 3.184 0
-970.438 3.07071 0
-968.714 2.94749 0
-966.996 2.81488 0
-965.28 2.67347 0
-963.569 2.52296 0
-961.862 2.3651 0
-960.159 2.19982 0
-958.46 2.02759 0
-956.765 1.84889 0
-955.074 1.66486 0
-953.388 1.47475 0
-951.705 1.28067 0
-950.025 1.08192 0
-948.349 0.879974 0
-946.678 0.67462 0
-945.01 0.466444 0
-943.346 0.256375 0
-941.686 0.0443248 0
-940.028 -0.168769 0
-938.375 -0.383713 0
-936.725 -0.598358 0
-935.078 -0.81334 0
-933.434 -1.02801 0
-931.794 -1.24151 0
-930.157 -1.4538 0
-928.522 -1.66583 0
-926.89 -1.87478 0
-925.261 -2.0824 0
-923.635 -2.28711 0
-922.01 -2.4895 0
-920.388 -2.68825 0
-918.769 -2.88469 0
-917.151 -3.07779 0
-915.536 -3.26638 0
-913.922 -3.45121 0
-912.311 -3.63184 0
-910.701 -3.8085 0
-909.094 -3.98056 0
-907.487 -4.1483 0
-905.882 -4.31075 0
-904.278 -4.46835 0
-902.675 -4.62209 0
-901.073 -4.7691 0
-899.473 -4.91186 0
-897.873 -5.04785 0
-896.275 -5.17961 0
-894.677 -5.30656 0
-893.079 -5.42706 0
-891.483 -5.54168 0
-889.886 -5.65128 0
-888.291 -5.75498 0
-886.695 -5.85363 0
-885.099 -5.94588 0
-883.504 -6.03416 0
-881.908 -6.11464 0
-880.313 -6.19121 0
-878.718 -6.26202 0
-877.123 -6.32665 0
-875.527 -6.38714 0
-873.931 -6.44209 0
-872.335 -6.49113 0
-870.738 -6.53492 0
-869.141 -6.57542 0
-867.543 -6.60951 0
-865.945 -6.63842 0
-864.346 -6.66245 0
-862.747 -6.68295 0
-861.147 -6.69815 0
-859.546 -6.70884 0
-857.944 -6.71605 0
-856.342 -6.719 0
-854.738 -6.71692 0
-853.134 -6.71185 0
-851.529 -6.70274 0
-849.924 -6.68937 0
-848.318 -6.67303 0
-846.71 -6.65368 0
-845.101 -6.63087 0
-843.492 -6.60444 0
-841.881 -6.57538 0
-840.269 -6.54201 0
-838.656 -6.50787 0
-837.043 -6.46978 0
-835.427 -6.42998 0
-833.811 -6.38763 0
-832.194 -6.34464 0
-830.577 -6.29796 0
-828.958 -6.25023 0
-827.338 -6.20087 0
-825.717 -6.14842 0
-824.096 -6.09758 0
-822.473 -6.04264 0
-820.848 -5.98779 0
-819.224 -5.93183 0
-817.597 -5.87409 0
-815.972 -5.81642 0
-814.344 -5.75826 0
-812.715 -5.69826 0
-811.086 -5.63892 0
-809.454 -5.57877 0
-807.823 -5.51883 0
-806.19 -5.45834 0
-804.556 -5.39953 0
-802.922 -5.3388 0
-801.29 -5.2787 0
-799.654 -5.21918 0
-798.018 -5.16016 0
-796.381 -5.10067 0
-794.743 -5.04239 0
-793.105 -4.98601 0
-791.467 -4.92816 0
-789.828 -4.8722 0
-788.187 -4.81732 0
-786.547 -4.7651 0
-784.906 -4.71042 0
-783.263 -4.65789 0
-781.621 -4.60668 0
-779.979 -4.55719 0
-778.335 -4.50808 0
-776.692 -4.46078 0
-775.047 -4.41386 0
-773.403 -4.36804 0
-771.758 -4.32453 0
-770.113 -4.28206 0
-768.467 -4.24337 0
-766.822 -4.2051 0
-765.177 -4.16647 0
-763.531 -4.13044 0
-761.884 -4.09533 0
-760.238 -4.06344 0
-758.592 -4.0306 0
-756.945 -4.00218 0
-755.297 -3.97483 0
-753.651 -3.94693 0
-752.004 -3.92299 0
-750.357 -3.89958 0
-748.709 -3.8784 0
-747.062 -3.85835 0
-745.414 -3.83955 0
-743.767 -3.82326 0
-742.12 -3.80801 0
-740.473 -3.79382 0
-738.826 -3.78147 0
-737.179 -3.77159 0
-735.531 -3.76222 0
-733.885 -3.75633 0
-732.238 -3.75038 0
-730.592 -3.7462 0
-728.944 -3.7429 0
-727.298 -3.74197 0
-725.652 -3.74168 0
-724.006 -3.74411 0
-722.36 -3.74509 0
-720.714 -3.74928 0
-719.069 -3.75316 0
-717.423 -3.76196 0
-715.778 -3.77091 0
-714.133 -3.78031 0
-712.489 -3.78859 0
-710.845 -3.79947 0
-709.201 -3.81384 0
-707.557 -3.82705 0
-705.912 -3.84183 0
-704.269 -3.85702 0
-702.626 -3.87407 0
-700.983 -3.89117 0
-699.342 -3.90808 0
-697.699 -3.92671 0
-696.057 -3.94858 0
-694.415 -3.96845 0
-692.774 -3.99083 0
-691.132 -4.0128 0
-689.492 -4.0357 0
-687.852 -4.0585 0
-686.212 -4.08347 0
-684.572 -4.11033 0
-682.932 -4.13463 0
-681.293 -4.15854 0
-679.653 -4.18733 0
-678.016 -4.21251 0
-676.378 -4.23942 0
-674.74 -4.26751 0
-673.102 -4.29558 0
-671.465 -4.32289 0
-669.827 -4.34977 0
-668.189 -4.37964 0
-666.552 -4.41043 0
-664.916 -4.43807 0
-663.28 -4.4664 0
-661.644 -4.49711 0
-660.008 -4.52617 0
-658.373 -4.55716 0
-656.737 -4.58625 0
-655.103 -4.6141 0
-653.47 -4.6407 0
-651.834 -4.66893 0
-650.199 -4.69863 0
-648.566 -4.72655 0
-646.933 -4.75452 0
-645.299 -4.78167 0
-643.666 -4.80822 0
-642.033 -4.83672 0
-640.4 -4.86365 0
-638.764 -4.88921 0
-637.132 -4.91591 0
-635.499 -4.94056 0
-633.866 -4.9683 0
-632.233 -4.99271 0
-630.601 -5.01947 0
-628.969 -5.04318 0
-627.339 -5.06747 0
-625.704 -5.09161 0
-624.071 -5.11665 0
-622.441 -5.14094 0
-620.809 -5.16325 0
-619.18 -5.18628 0
-617.547 -5.20748 0
-615.917 -5.22782 0
-614.285 -5.25019 0
-612.654 -5.26971 0
-611.022 -5.28825 0
-609.392 -5.30398 0
-607.76 -5.32418 0
-606.128 -5.34375 0
-604.499 -5.35993 0
-602.867 -5.37898 0
-601.236 -5.39547 0
-599.605 -5.41135 0
-597.974 -5.4258 0
-596.345 -5.4411 0
-594.714 -5.45648 0
-593.081 -5.47078 0
-591.45 -5.48669 0
-589.819 -5.49938 0
-588.187 -5.51142 0
-586.557 -5.52483 0
-584.925 -5.53498 0
-583.292 -5.54551 0
-581.664 -5.55643 0
-580.032 -5.56653 0
-578.4 -5.57851 0
-576.77 -5.58417 0
-575.138 -5.59308 0
-573.508 -5.6031 0
-571.875 -5.60977 0
-570.243 -5.61865 0
-568.613 -5.62696 0
-566.983 -5.63384 0
-565.351 -5.6371 0
-563.72 -5.64527 0
-562.088 -5.64956 0
-560.456 -5.65383 0
-558.826 -5.65706 0
-557.192 -5.66298 0
-555.562 -5.66669 0
-553.93 -5.66916 0
-552.298 -5.67268 0
-550.664 -5.67659 0
-549.033 -5.6802 0
-547.399 -5.68006 0
-545.765 -5.68206 0
-544.133 -5.68456 0
-542.501 -5.68719 0
-540.869 -5.68848 0
-539.238 -5.69261 0
-537.605 -5.69049 0
-535.973 -5.68915 0
-534.339 -5.68977 0
-532.706 -5.69024 0
-531.072 -5.69315 0
-529.44 -5.69039 0
-527.808 -5.69031 0
-526.175 -5.68984 0
-524.543 -5.68874 0
-522.909 -5.6878 0
-521.275 -5.68627 0
-519.64 -5.68786 0
-518.007 -5.68597 0
-516.373 -5.68166 0
-514.739 -5.6799 0
-513.105 -5.67907 0
-511.473 -5.67649 0
-509.839 -5.67427 0
-508.204 -5.67303 0
-506.571 -5.6745 0
-504.934 -5.67071 0
-503.3 -5.66914 0
-501.664 -5.66476 0
-500.032 -5.66289 0
-498.395 -5.66355 0
-496.76 -5.65967 0
-495.127 -5.65748 0
-493.491 -5.65374 0
-491.858 -5.65355 0
-490.223 -5.65343 0
-488.588 -5.65006 0
-486.951 -5.6482 0
-485.317 -5.65001 0
-483.681 -5.64713 0
-482.047 -5.6484 0
-480.414 -5.64292 0
-478.779 -5.64188 0
-477.141 -5.6413 0
-475.508 -5.63859 0
-473.872 -5.63906 0
-472.238 -5.64022 0
-470.605 -5.63903 0
-468.967 -5.63459 0
-467.335 -5.63471 0
-465.698 -5.63496 0
-464.062 -5.63255 0
-462.427 -5.63365 0
-460.792 -5.63505 0
-459.156 -5.63061 0
-457.52 -5.62855 0
-455.883 -5.62996 0
-454.247 -5.62897 0
-452.612 -5.62998 0
-450.977 -5.6329 0
-449.342 -5.63398 0
-447.706 -5.63078 0
-446.069 -5.63275 0
-444.432 -5.634 0
-442.797 -5.63862 0
-441.159 -5.63872 0
-439.527 -5.63874 0
-437.892 -5.64136 0
-436.256 -5.64342 0
-434.621 -5.64667 0
-432.987 -5.64839 0
-431.351 -5.65092 0
-429.717 -5.65429 0
-428.082 -5.65447 0
-426.446 -5.65531 0
-424.811 -5.65641 0
-423.176 -5.66133 0
-421.542 -5.66386 0
-419.905 -5.66665 0
-418.27 -5.66589 0
-416.631 -5.67115 0
-414.996 -5.67385 0
-413.362 -5.6793 0
-411.725 -5.68178 0
-410.088 -5.68648 0
-408.453 -5.69026 0
-406.817 -5.69319 0
-405.181 -5.69723 0
-403.547 -5.69911 0
-401.913 -5.70322 0
-400.278 -5.70781 0
-398.641 -5.71 0
-397.007 -5.71564 0
-395.369 -5.71594 0
-393.734 -5.72383 0
-392.1 -5.72589 0
-390.465 -5.73324 0
-388.831 -5.73739 0
-387.196 -5.73806 0
-385.561 -5.74607 0
-383.926 -5.75198 0
-382.291 -5.7541 0
-380.658 -5.75963 0
-379.023 -5.76494 0
-377.387 -5.7718 0
-375.754 -5.77335 0
-374.116 -5.77853 0
-372.482 -5.78333 0
-370.847 -5.78598 0
-369.212 -5.79499 0
-367.576 -5.80027 0
-365.943 -5.80672 0
-364.307 -5.80915 0
-362.673 -5.81445 0
-361.04 -5.81898 0
-359.403 -5.82421 0
-357.768 -5.83024 0
-356.134 -5.83292 0
-354.501 -5.83681 0
-352.869 -5.84408 0
-351.235 -5.849 0
-349.596 -5.8572 0
-347.963 -5.86252 0
-346.33 -5.86714 0
-344.696 -5.86799 0
-343.06 -5.87641 0
-341.425 -5.88372 0
-339.792 -5.88812 0
-338.157 -5.89402 0
-336.526 -5.8996 0
-334.894 -5.9017 0
-333.259 -5.90668 0
-331.623 -5.91293 0
-329.989 -5.9196 0
-328.354 -5.92369 0
-326.722 -5.9317 0
-325.089 -5.93527 0
-323.455 -5.94107 0
-321.823 -5.94703 0
-320.186 -5.9504 0
-318.553 -5.95448 0
-316.92 -5.95769 0
-315.287 -5.96327 0
-313.652 -5.96667 0
-312.019 -5.9739 0
-310.385 -5.97626 0
-308.751 -5.98023 0
-307.117 -5.98406 0
-305.483 -5.98831 0
-303.848 -5.99481 0
-302.215 -6.00072 0
-300.583 -6.00415 0
-298.948 -6.00434 0
-297.314 -6.01054 0
-295.678 -6.01528 0
-294.046 -6.01916 0
-292.411 -6.02146 0
-290.777 -6.02552 0
-289.145 -6.02679 0
-287.513 -6.03117 0
-285.88 -6.03488 0
-284.248 -6.03862 0
-282.612 -6.03946 0
-280.979 -6.04367 0
-279.346 -6.04663 0
-277.709 -6.0495 0
-276.079 -6.05394 0
-274.446 -6.05628 0
-272.813 -6.0591 0
-271.178 -6.06271 0
-269.542 -6.0617 0
-267.911 -6.06588 0
-266.277 -6.07209 0
-264.647 -6.07101 0
-263.012 -6.07261 0
-261.379 -6.07525 0
-259.743 -6.07979 0
-258.11 -6.08187 0
-256.477 -6.08382 0
-254.843 -6.08344 0
-253.21 -6.0859 0
-251.574 -6.08463 0
-249.939 -6.08962 0
-248.304 -6.09347 0
-246.671 -6.09425 0
-245.039 -6.09474 0
-243.402 -6.09632 0
-241.768 -6.10005 0
-240.137 -6.10079 0
-238.502 -6.10409 0
-236.872 -6.1095 0
-235.237 -6.10962 0
-233.601 -6.11094 0
-231.968 -6.11239 0
-230.335 -6.11045 0
-228.703 -6.1128 0
-227.07 -6.11499 0
-225.439 -6.11752 0
-223.808 -6.11446 0
-222.176 -6.11531 0
-220.539 -6.1182 0
-218.906 -6.11993 0
-217.272 -6.12061 0
-215.64 -6.11838 0
-214.006 -6.12347 0
-212.371 -6.12417 0
-210.737 -6.12492 0
-209.104 -6.12506 0
-207.473 -6.12349 0
-205.838 -6.12484 0
-204.203 -6.1244 0
-202.567 -6.12549 0
-200.935 -6.12645 0
-199.301 -6.12852 0
-197.666 -6.13033 0
-196.035 -6.12998 0
-194.4 -6.13136 0
-192.766 -6.13095 0
-191.134 -6.13167 0
-189.502 -6.12613 0
-187.868 -6.12662 0
-186.234 -6.12865 0
-184.599 -6.1292 0
-182.966 -6.12931 0
-181.332 -6.13127 0
-179.697 -6.13113 0
-178.062 -6.13125 0
-176.432 -6.13326 0
-174.797 -6.1328 0
-173.164 -6.12967 0
-171.528 -6.13162 0
-169.895 -6.13601 0
-168.261 -6.1351 0
-166.626 -6.13272 0
-164.993 -6.13688 0
-163.358 -6.14001 0
-161.725 -6.13738 0
-160.092 -6.1342 0
-158.456 -6.1323 0
-156.82 -6.13523 0
-155.188 -6.13441 0
-153.556 -6.13538 0
-151.922 -6.1338 0
-150.29 -6.13447 0
-148.657 -6.13093 0
-147.022 -6.13048 0
-145.389 -6.1329 0
-143.754 -6.12775 0
-142.12 -6.12841 0
-140.485 -6.13067 0
-138.852 -6.13173 0
-137.22 -6.13518 0
-135.588 -6.13031 0
-133.953 -6.1359 0
-132.32 -6.1336 0
-130.69 -6.13577 0
-129.056 -6.13286 0
-127.423 -6.13546 0
-125.786 -6.13279 0
-124.154 -6.13535 0
-122.519 -6.13141 0
-120.886 -6.13169 0
-119.249 -6.13419 0
-117.616 -6.13483 0
-115.982 -6.135 0
-114.348 -6.13695 0
-112.716 -6.13193 0
-111.079 -6.13093 0
-109.445 -6.12998 0
-107.812 -6.13169 0
-106.18 -6.1351 0
-104.545 -6.13223 0
-102.911 -6.1321 0
-101.273 -6.13285 0
-99.6397 -6.13654 0
-98.0091 -6.13508 0
-96.3772 -6.13452 0
-94.7402 -6.13493 0
-93.1069 -6.13464 0
-91.4748 -6.13616 0
-89.8419 -6.13349 0
-88.2088 -6.13337 0
-86.5773 -6.13512 0
-84.9419 -6.13591 0
-83.3096 -6.13319 0
-81.6758 -6.13631 0
-80.0433 -6.13662 0
-78.4104 -6.13293 0
-76.7759 -6.13331 0
-75.1408 -6.1316 0
-73.5054 -6.13328 0
-71.8711 -6.13357 0
-70.2385 -6.13434 0
-68.6048 -6.13669 0
-66.9758 -6.13547 0
-65.3385 -6.13741 0
-63.7081 -6.13261 0
-62.075 -6.13561 0
-60.4424 -6.13377 0
-58.8097 -6.13665 0
-57.1754 -6.13196 0
-55.5409 -6.13216 0
-53.9049 -6.13474 0
-52.2696 -6.13125 0
-50.634 -6.13125 0
-49.0039 -6.13232 0
-47.3738 -6.13306 0
-45.7402 -6.13156 0
-44.1079 -6.13263 0
-42.4736 -6.13224 0
-40.8402 -6.13095 0
-39.2058 -6.12686 0
-37.571 -6.13033 0
-35.9394 -6.12887 0
-34.3052 -6.12962 0
-32.6677 -6.13029 0
-31.0355 -6.13101 0
-29.404 -6.13115 0
-27.7678 -6.12999 0
-26.1377 -6.13213 0
-24.5059 -6.13284 0
-22.8684 -6.1319 0
-21.2353 -6.13181 0
-19.6014 -6.13265 0
-17.965 -6.12846 0
-16.3343 -6.12663 0
-14.7039 -6.12585 0
-13.0706 -6.12741 0
-11.4367 -6.12853 0
-9.80051 -6.12747 0
-8.17011 -6.12638 0
-6.53558 -6.12416 0
-4.90388 -6.12355 0
-3.26854 -6.12428 0
-1.63467 -6.12471 0
0 -6.12168 0
-1100.71 74.1069 0
-1100.72 66.8015 0
-1100.71 59.7066 0
-1100.66 52.913 0
-1100.61 46.4462 0
-1100.6 40.2499 0
-1100.58 34.2706 0
-1100.5 28.5636 0
-1100.37 23.2077 0
-1100.23 18.2332 0
-1100.06 13.6421 0
-1099.87 9.42872 0
-1099.66 5.58464 0
-1099.43 2.09675 0
-1099.15 -1.0523 0
-1098.85 -3.88351 0
-1098.5 -6.41923 0
-1098.11 -8.6819 0
-1097.67 -10.6944 0
-1097.19 -12.4773 0
-1096.66 -14.0499 0
-1096.09 -15.4305 0
-1095.47 -16.6356 0
-1094.8 -17.6795 0
-1094.1 -18.5761 0
-1093.35 -19.3374 0
-1092.57 -19.974 0
-1091.75 -20.4955 0
-1090.89 -20.9109 0
-1090 -21.2278 0
-1089.08 -21.4529 0
-1088.13 -21.5936 0
-1087.15 -21.6548 0
-1086.14 -21.642 0
-1085.11 -21.5602 0
-1084.04 -21.414 0
-1082.95 -21.2073 0
-1081.83 -20.9444 0
-1080.69 -20.6299 0
-1079.51 -20.2666 0
-1078.32 -19.8591 0
-1077.09 -19.4105 0
-1075.85 -18.9248 0
-1074.58 -18.4052 0
-1073.28 -17.8549 0
-1071.96 -17.2772 0
-1070.62 -16.6757 0
-1069.26 -16.053 0
-1067.88 -15.4121 0
-1066.47 -14.756 0
-1065.04 -14.0872 0
-1063.6 -13.4083 0
-1062.13 -12.7223 0
-1060.64 -12.0306 0
-1059.14 -11.3366 0
-1057.62 -10.6414 0
-1056.09 -9.9474 0
-1054.53 -9.2569 0
-1052.97 -8.57081 0
-1051.38 -7.89139 0
-1049.79 -7.21996 0
-1048.18 -6.55806 0
-1046.56 -5.90732 0
-1044.92 -5.26879 0
-1043.28 -4.64332 0
-1041.62 -4.03247 0
-1039.95 -3.43685 0
-1038.28 -2.85752 0
-1036.59 -2.29513 0
-1034.9 -1.75025 0
-1033.2 -1.22403 0
-1031.5 -0.716645 0
-1029.78 -0.229133 0
-1028.06 0.238999 0
-1026.34 0.686771 0
-1024.61 1.11412 0
-1022.87 1.52121 0
-1021.14 1.90708 0
-1019.39 2.2724 0
-1017.65 2.61633 0
-1015.9 2.93907 0
-1014.15 3.24094 0
-1012.4 3.52187 0
-1010.65 3.78201 0
-1008.89 4.02198 0
-1007.14 4.24104 0
-1005.38 4.43966 0
-1003.62 4.61853 0
-1001.87 4.77776 0
-1000.11 4.918 0
-998.359 5.03893 0
-996.606 5.14129 0
-994.854 5.22592 0
-993.103 5.29268 0
-991.354 5.34238 0
-989.607 5.37522 0
-987.862 5.39209 0
-986.118 5.39338 0
-984.378 5.37876 0
-982.64 5.34962 0
-980.905 5.30638 0
-979.172 5.24953 0
-977.443 5.17965 0
-975.717 5.09693 0
-973.993 5.00249 0
-972.273 4.89647 0
-970.556 4.7797 0
-968.843 4.65276 0
-967.133 4.51627 0
-965.426 4.37118 0
-963.723 4.21707 0
-962.023 4.05523 0
-960.327 3.8863 0
-958.635 3.71033 0
-956.946 3.52796 0
-955.261 3.33993 0
-953.579 3.14641 0
-951.9 2.94868 0
-950.224 2.74653 0
-948.552 2.54101 0
-946.883 2.33228 0
-945.218 2.12081 0
-943.556 1.90703 0
-941.896 1.69179 0
-940.241 1.4752 0
-938.588 1.25732 0
-936.938 1.03926 0
-935.291 0.821347 0
-933.647 0.603878 0
-932.006 0.387209 0
-930.367 0.172036 0
-928.731 -0.0418724 0
-927.097 -0.253877 0
-925.465 -0.463761 0
-923.836 -0.671151 0
-922.209 -0.87549 0
-920.584 -1.07634 0
-918.962 -1.27493 0
-917.341 -1.4696 0
-915.721 -1.66044 0
-914.104 -1.84679 0
-912.488 -2.02918 0
-910.874 -2.20798 0
-909.262 -2.38146 0
-907.651 -2.55034 0
-906.041 -2.71399 0
-904.432 -2.87302 0
-902.824 -3.02713 0
-901.218 -3.17587 0
-899.612 -3.31873 0
-898.007 -3.45665 0
-896.403 -3.58856 0
-894.799 -3.71601 0
-893.196 -3.83747 0
-891.594 -3.95249 0
-889.992 -4.06228 0
-888.391 -4.16683 0
-886.79 -4.26486 0
-885.189 -4.35832 0
-883.588 -4.44582 0
-881.987 -4.52673 0
-880.386 -4.60309 0
-878.785 -4.67386 0
-877.185 -4.73868 0
-875.584 -4.79876 0
-873.982 -4.85351 0
-872.381 -4.90207 0
-870.779 -4.94604 0
-869.177 -4.98532 0
-867.574 -5.01945 0
-865.971 -5.04744 0
-864.368 -5.0711 0
-862.764 -5.09109 0
-861.16 -5.10494 0
-859.555 -5.1158 0
-857.949 -5.12212 0
-856.342 -5.1241 0
-854.735 -5.12161 0
-853.128 -5.11531 0
-851.519 -5.10617 0
-849.909 -5.09155 0
-848.299 -5.07454 0
-846.688 -5.05402 0
-845.076 -5.02954 0
-843.464 -5.00289 0
-841.85 -4.9726 0
-840.236 -4.93924 0
-838.621 -4.9032 0
-837.004 -4.86493 0
-835.386 -4.82349 0
-833.769 -4.78109 0
-832.15 -4.73619 0
-830.53 -4.68874 0
-828.909 -4.6398 0
-827.287 -4.58995 0
-825.666 -4.53698 0
-824.042 -4.48456 0
-822.418 -4.42857 0
-820.793 -4.37366 0
-819.167 -4.3158 0
-817.541 -4.25847 0
-815.914 -4.19915 0
-814.285 -4.13996 0
-812.656 -4.07963 0
-811.025 -4.01883 0
-809.394 -3.95782 0
-807.763 -3.89725 0
-806.131 -3.83667 0
-804.498 -3.77594 0
-802.864 -3.71557 0
-801.23 -3.65482 0
-799.595 -3.59353 0
-797.959 -3.53428 0
-796.323 -3.47428 0
-794.686 -3.41515 0
-793.048 -3.35708 0
-791.41 -3.2994 0
-789.772 -3.24389 0
-788.132 -3.18786 0
-786.493 -3.13399 0
-784.852 -3.07974 0
-783.211 -3.02724 0
-781.571 -2.97532 0
-779.929 -2.92508 0
-778.288 -2.87515 0
-776.645 -2.82759 0
-775.002 -2.77996 0
-773.359 -2.734 0
-771.716 -2.69094 0
-770.073 -2.64856 0
-768.429 -2.60879 0
-766.785 -2.56973 0
-765.14 -2.53128 0
-763.496 -2.49526 0
-761.852 -2.46006 0
-760.207 -2.42781 0
-758.562 -2.39502 0
-756.917 -2.36573 0
-755.271 -2.33864 0
-753.626 -2.31105 0
-751.98 -2.28645 0
-750.335 -2.26357 0
-748.689 -2.24213 0
-747.043 -2.22155 0
-745.398 -2.20293 0
-743.752 -2.18727 0
-742.106 -2.17203 0
-740.46 -2.15795 0
-738.815 -2.14498 0
-737.169 -2.13566 0
-735.522 -2.12666 0
-733.878 -2.12018 0
-732.233 -2.11449 0
-730.588 -2.11007 0
-728.942 -2.10743 0
-727.298 -2.10607 0
-725.652 -2.10606 0
-724.007 -2.10873 0
-722.363 -2.11015 0
-720.719 -2.11445 0
-719.074 -2.11991 0
-717.431 -2.12802 0
-715.786 -2.1362 0
-714.142 -2.14689 0
-712.499 -2.15601 0
-710.856 -2.16672 0
-709.213 -2.18021 0
-707.57 -2.19348 0
-705.929 -2.20899 0
-704.285 -2.22502 0
-702.643 -2.24152 0
-701 -2.25867 0
-699.359 -2.27742 0
-697.718 -2.29633 0
-696.077 -2.31703 0
-694.436 -2.3373 0
-692.797 -2.35977 0
-691.156 -2.38277 0
-689.516 -2.40551 0
-687.876 -2.42997 0
-686.237 -2.45359 0
-684.597 -2.48102 0
-682.957 -2.50615 0
-681.319 -2.53111 0
-679.68 -2.55754 0
-678.043 -2.58503 0
-676.404 -2.61196 0
-674.767 -2.63869 0
-673.129 -2.66761 0
-671.491 -2.69565 0
-669.855 -2.72404 0
-668.217 -2.75322 0
-666.58 -2.78249 0
-664.945 -2.81223 0
-663.31 -2.84176 0
-661.673 -2.8707 0
-660.036 -2.90173 0
-658.401 -2.92972 0
-656.767 -2.96027 0
-655.131 -2.98861 0
-653.497 -3.01649 0
-651.863 -3.04397 0
-650.228 -3.07347 0
-648.594 -3.10174 0
-646.96 -3.13069 0
-645.326 -3.15889 0
-643.691 -3.18534 0
-642.059 -3.21263 0
-640.424 -3.23916 0
-638.791 -3.2669 0
-637.159 -3.29338 0
-635.526 -3.31885 0
-633.894 -3.34488 0
-632.26 -3.37006 0
-630.625 -3.39578 0
-628.992 -3.42099 0
-627.36 -3.44584 0
-625.728 -3.46942 0
-624.096 -3.49476 0
-622.465 -3.51975 0
-620.833 -3.54225 0
-619.2 -3.56478 0
-617.568 -3.58542 0
-615.936 -3.60638 0
-614.306 -3.62729 0
-612.673 -3.64848 0
-611.041 -3.66613 0
-609.411 -3.68462 0
-607.779 -3.70332 0
-606.147 -3.72242 0
-604.516 -3.73998 0
-602.883 -3.75699 0
-601.251 -3.77426 0
-599.621 -3.79081 0
-597.99 -3.80506 0
-596.359 -3.82092 0
-594.727 -3.83537 0
-593.096 -3.84934 0
-591.464 -3.86397 0
-589.832 -3.87776 0
-588.199 -3.89072 0
-586.568 -3.90344 0
-584.935 -3.91275 0
-583.303 -3.92475 0
-581.672 -3.9357 0
-580.042 -3.94514 0
-578.409 -3.95638 0
-576.778 -3.96492 0
-575.147 -3.97283 0
-573.515 -3.98087 0
-571.885 -3.98747 0
-570.252 -3.99698 0
-568.621 -4.00544 0
-566.99 -4.01125 0
-565.357 -4.01638 0
-563.726 -4.02154 0
-562.094 -4.02882 0
-560.462 -4.03278 0
-558.831 -4.0368 0
-557.198 -4.0412 0
-555.566 -4.04528 0
-553.934 -4.04894 0
-552.302 -4.05075 0
-550.669 -4.05397 0
-549.034 -4.05596 0
-547.401 -4.05739 0
-545.769 -4.06077 0
-544.136 -4.06215 0
-542.503 -4.0645 0
-540.871 -4.06682 0
-539.237 -4.06781 0
-537.604 -4.06878 0
-535.972 -4.06664 0
-534.339 -4.0669 0
-532.708 -4.0686 0
-531.074 -4.06895 0
-529.441 -4.06944 0
-527.807 -4.06813 0
-526.174 -4.06769 0
-524.54 -4.06486 0
-522.908 -4.06602 0
-521.275 -4.06265 0
-519.641 -4.06222 0
-518.006 -4.06297 0
-516.371 -4.0606 0
-514.739 -4.05602 0
-513.104 -4.05494 0
-511.468 -4.0519 0
-509.836 -4.0515 0
-508.203 -4.05049 0
-506.568 -4.04975 0
-504.932 -4.04614 0
-503.297 -4.04402 0
-501.662 -4.04129 0
-500.027 -4.03909 0
-498.393 -4.03834 0
-496.757 -4.03502 0
-495.125 -4.03245 0
-493.491 -4.02947 0
-491.856 -4.02904 0
-490.22 -4.02861 0
-488.586 -4.0254 0
-486.952 -4.02455 0
-485.317 -4.02237 0
-483.681 -4.02301 0
-482.046 -4.0218 0
-480.411 -4.01767 0
-478.776 -4.01612 0
-477.141 -4.01691 0
-475.506 -4.01463 0
-473.871 -4.01404 0
-472.238 -4.01396 0
-470.602 -4.0123 0
-468.967 -4.01193 0
-467.332 -4.0112 0
-465.697 -4.00848 0
-464.063 -4.00745 0
-462.426 -4.00895 0
-460.79 -4.00879 0
-459.155 -4.00613 0
-457.518 -4.00575 0
-455.884 -4.00456 0
-454.248 -4.00448 0
-452.612 -4.00538 0
-450.978 -4.00736 0
-449.34 -4.00764 0
-447.705 -4.00571 0
-446.07 -4.00755 0
-444.435 -4.00951 0
-442.798 -4.01293 0
-441.163 -4.01332 0
-439.528 -4.01546 0
-437.894 -4.01565 0
-436.257 -4.01855 0
-434.623 -4.02202 0
-432.988 -4.02316 0
-431.352 -4.02599 0
-429.715 -4.02808 0
-428.081 -4.028 0
-426.447 -4.03006 0
-424.811 -4.03294 0
-423.178 -4.03632 0
-421.541 -4.03656 0
-419.907 -4.04026 0
-418.27 -4.04106 0
-416.635 -4.04524 0
-414.999 -4.05029 0
-413.364 -4.05344 0
-411.727 -4.05587 0
-410.093 -4.05972 0
-408.456 -4.06458 0
-406.82 -4.06609 0
-405.186 -4.07112 0
-403.552 -4.07411 0
-401.917 -4.07934 0
-400.28 -4.08159 0
-398.643 -4.08504 0
-397.009 -4.0883 0
-395.375 -4.09261 0
-393.738 -4.097 0
-392.105 -4.10286 0
-390.47 -4.10767 0
-388.836 -4.11192 0
-387.201 -4.11458 0
-385.566 -4.12024 0
-383.931 -4.12615 0
-382.296 -4.1292 0
-380.661 -4.13546 0
-379.026 -4.1407 0
-377.391 -4.1469 0
-375.756 -4.15047 0
-374.122 -4.1554 0
-372.487 -4.15759 0
-370.852 -4.16324 0
-369.22 -4.16942 0
-367.584 -4.17593 0
-365.947 -4.18232 0
-364.312 -4.18558 0
-362.677 -4.1904 0
-361.043 -4.19411 0
-359.41 -4.19871 0
-357.775 -4.20507 0
-356.141 -4.20987 0
-354.508 -4.21334 0
-352.873 -4.2202 0
-351.238 -4.22534 0
-349.604 -4.23236 0
-347.969 -4.2374 0
-346.333 -4.24232 0
-344.701 -4.24521 0
-343.066 -4.25188 0
-341.431 -4.25981 0
-339.797 -4.26676 0
-338.165 -4.27057 0
-336.53 -4.27464 0
-334.895 -4.27746 0
-333.261 -4.28321 0
-331.628 -4.28841 0
-329.992 -4.29492 0
-328.361 -4.30197 0
-326.725 -4.30758 0
-325.093 -4.31234 0
-323.461 -4.3162 0
-321.826 -4.32242 0
-320.192 -4.32677 0
-318.557 -4.33069 0
-316.924 -4.33512 0
-315.292 -4.3383 0
-313.658 -4.34318 0
-312.023 -4.34818 0
-310.389 -4.3518 0
-308.754 -4.3566 0
-307.122 -4.36002 0
-305.487 -4.36453 0
-303.853 -4.36936 0
-302.218 -4.37617 0
-300.584 -4.37945 0
-298.95 -4.38151 0
-297.317 -4.38722 0
-295.683 -4.39054 0
-294.049 -4.39331 0
-292.415 -4.39839 0
-290.781 -4.402 0
-289.148 -4.40547 0
-287.516 -4.40905 0
-285.883 -4.41156 0
-284.25 -4.41567 0
-282.615 -4.41646 0
-280.984 -4.41857 0
-279.348 -4.42193 0
-277.715 -4.42764 0
-276.082 -4.43104 0
-274.448 -4.43425 0
-272.814 -4.43645 0
-271.181 -4.43802 0
-269.547 -4.44 0
-267.914 -4.44318 0
-266.281 -4.4489 0
-264.648 -4.44905 0
-263.013 -4.45047 0
-261.381 -4.45338 0
-259.748 -4.45429 0
-258.113 -4.4574 0
-256.477 -4.45861 0
-254.842 -4.46001 0
-253.209 -4.45988 0
-251.575 -4.46291 0
-249.941 -4.46462 0
-248.306 -4.46882 0
-246.674 -4.47112 0
-245.039 -4.47251 0
-243.406 -4.4725 0
-241.772 -4.47714 0
-240.139 -4.47757 0
-238.508 -4.48122 0
-236.873 -4.4849 0
-235.24 -4.48594 0
-233.605 -4.48803 0
-231.97 -4.49115 0
-230.339 -4.48957 0
-228.706 -4.48884 0
-227.073 -4.49218 0
-225.441 -4.49282 0
-223.807 -4.49273 0
-222.172 -4.49463 0
-220.54 -4.49367 0
-218.906 -4.49557 0
-217.273 -4.49639 0
-215.64 -4.49754 0
-214.007 -4.50014 0
-212.373 -4.50058 0
-210.737 -4.49977 0
-209.107 -4.5015 0
-207.472 -4.50099 0
-205.839 -4.50196 0
-204.203 -4.5004 0
-202.568 -4.50311 0
-200.936 -4.50344 0
-199.301 -4.50559 0
-197.669 -4.50503 0
-196.035 -4.50672 0
-194.401 -4.50587 0
-192.767 -4.50848 0
-191.135 -4.50725 0
-189.502 -4.5054 0
-187.867 -4.50451 0
-186.232 -4.50561 0
-184.599 -4.50586 0
-182.964 -4.50504 0
-181.334 -4.50768 0
-179.697 -4.50576 0
-178.064 -4.5081 0
-176.429 -4.51034 0
-174.795 -4.50671 0
-173.163 -4.50805 0
-171.53 -4.50757 0
-169.895 -4.5091 0
-168.261 -4.50985 0
-166.627 -4.50964 0
-164.995 -4.51169 0
-163.359 -4.51415 0
-161.725 -4.51137 0
-160.089 -4.50901 0
-158.454 -4.5086 0
-156.821 -4.51147 0
-155.188 -4.51086 0
-153.554 -4.50834 0
-151.922 -4.5108 0
-150.288 -4.50938 0
-148.654 -4.50797 0
-147.022 -4.50671 0
-145.387 -4.50824 0
-143.753 -4.50816 0
-142.122 -4.5063 0
-140.487 -4.50611 0
-138.851 -4.50941 0
-137.221 -4.50961 0
-135.585 -4.50697 0
-133.953 -4.50916 0
-132.321 -4.51252 0
-130.686 -4.51169 0
-129.053 -4.51192 0
-127.422 -4.51067 0
-125.786 -4.51073 0
-124.152 -4.51014 0
-122.519 -4.50806 0
-120.884 -4.51046 0
-119.25 -4.51118 0
-117.616 -4.51131 0
-115.983 -4.51191 0
-114.349 -4.51048 0
-112.715 -4.50986 0
-111.079 -4.50646 0
-109.444 -4.50776 0
-107.812 -4.50762 0
-106.177 -4.50828 0
-104.543 -4.50817 0
-102.908 -4.50756 0
-101.274 -4.51034 0
-99.641 -4.51217 0
-98.0088 -4.51254 0
-96.3753 -4.51351 0
-94.7433 -4.50965 0
-93.1088 -4.51265 0
-91.4742 -4.51523 0
-89.8401 -4.51248 0
-88.2102 -4.51182 0
-86.5769 -4.51283 0
-84.9418 -4.51259 0
-83.3085 -4.51376 0
-81.6785 -4.51226 0
-80.0421 -4.5123 0
-78.4078 -4.50746 0
-76.7758 -4.50886 0
-75.1414 -4.50823 0
-73.508 -4.50984 0
-71.8728 -4.51115 0
-70.2389 -4.51136 0
-68.6047 -4.51412 0
-66.9726 -4.51072 0
-65.3396 -4.51165 0
-63.7061 -4.50981 0
-62.0728 -4.5122 0
-60.4398 -4.51257 0
-58.8066 -4.51143 0
-57.1712 -4.50906 0
-55.5385 -4.50845 0
-53.9052 -4.50986 0
-52.2713 -4.50786 0
-50.6373 -4.5087 0
-49.003 -4.51035 0
-47.3688 -4.50842 0
-45.7375 -4.51027 0
-44.1065 -4.50864 0
-42.4739 -4.50755 0
-40.8396 -4.50501 0
-39.2062 -4.50833 0
-37.5735 -4.50676 0
-35.939 -4.50681 0
-34.3048 -4.50413 0
-32.6728 -4.50809 0
-31.0361 -4.50788 0
-29.4032 -4.50669 0
-27.7711 -4.50596 0
-26.1384 -4.50956 0
-24.5025 -4.50736 0
-22.8698 -4.50758 0
-21.2336 -4.50768 0
-19.6008 -4.50726 0
-17.9682 -4.50518 0
-16.3337 -4.50341 0
-14.7018 -4.50334 0
-13.069 -4.50407 0
-11.4355 -4.50332 0
-9.80221 -4.50403 0
-8.16869 -4.50292 0
-6.53549 -4.50078 0
-4.89968 -4.50028 0
-3.26707 -4.4996 0
-1.6326 -4.50042 0
0 -4.5001 0
-1108.32 74.6599 0
-1107.92 67.1692 0
-1107.65 60.0993 0
-1107.35 53.3171 0
-1107.04 46.8134 0
-1106.74 40.5824 0
-1106.42 34.6345 0
-1106.04 28.9808 0
-1105.6 23.6532 0
-1105.11 18.6887 0
-1104.59 14.1032 0
-1104.04 9.89614 0
-1103.48 6.06066 0
-1102.9 2.5846 0
-1102.3 -0.549097 0
-1101.68 -3.36045 0
-1101.05 -5.87232 0
-1100.39 -8.10764 0
-1099.7 -10.0899 0
-1098.99 -11.8405 0
-1098.25 -13.3798 0
-1097.49 -14.7268 0
-1096.69 -15.8985 0
-1095.86 -16.9093 0
-1095.01 -17.7736 0
-1094.13 -18.5033 0
-1093.22 -19.1097 0
-1092.28 -19.6019 0
-1091.32 -19.9886 0
-1090.34 -20.2777 0
-1089.33 -20.4761 0
-1088.29 -20.5904 0
-1087.23 -20.6255 0
-1086.15 -20.5875 0
-1085.04 -20.4809 0
-1083.92 -20.3095 0
-1082.76 -20.0785 0
-1081.59 -19.7917 0
-1080.39 -19.4531 0
-1079.18 -19.0662 0
-1077.94 -18.635 0
-1076.67 -18.1638 0
-1075.39 -17.6554 0
-1074.09 -17.1133 0
-1072.76 -16.5411 0
-1071.42 -15.9419 0
-1070.05 -15.3194 0
-1068.67 -14.6763 0
-1067.27 -14.0153 0
-1065.85 -13.3395 0
-1064.41 -12.6522 0
-1062.95 -11.9546 0
-1061.48 -11.2509 0
-1059.99 -10.5423 0
-1058.48 -9.83137 0
-1056.96 -9.12038 0
-1055.42 -8.41137 0
-1053.88 -7.70614 0
-1052.31 -7.00581 0
-1050.74 -6.31313 0
-1049.15 -5.62935 0
-1047.55 -4.95509 0
-1045.93 -4.2929 0
-1044.31 -3.6432 0
-1042.68 -3.00759 0
-1041.04 -2.38697 0
-1039.39 -1.78194 0
-1037.73 -1.19381 0
-1036.06 -0.624023 0
-1034.38 -0.071608 0
-1032.7 0.461439 0
-1031.01 0.975138 0
-1029.32 1.46868 0
-1027.62 1.94208 0
-1025.91 2.39479 0
-1024.2 2.82685 0
-1022.49 3.23782 0
-1020.77 3.62747 0
-1019.05 3.99547 0
-1017.32 4.34241 0
-1015.6 4.66765 0
-1013.87 4.97152 0
-1012.13 5.25408 0
-1010.4 5.51556 0
-1008.67 5.75637 0
-1006.93 5.97621 0
-1005.19 6.17504 0
-1003.46 6.35402 0
-1001.72 6.51327 0
-999.983 6.65281 0
-998.247 6.77284 0
-996.511 6.87422 0
-994.776 6.95777 0
-993.043 7.0233 0
-991.31 7.07144 0
-989.579 7.1022 0
-987.849 7.11711 0
-986.122 7.11652 0
-984.396 7.09969 0
-982.672 7.06807 0
-980.95 7.02221 0
-979.231 6.96263 0
-977.514 6.88996 0
-975.8 6.80468 0
-974.087 6.70737 0