<?xml version="1.0"?>
<VTKFile type="StructuredGrid"  version="0.1" byte_order="LittleEndian" compressor="vtkZLibDataCompressor">
  <StructuredGrid WholeExtent="0 700 0 30 0 0">
    <Piece Extent="0 700 0 30 0 0">
      <PointData Vectors="Velocity">
        <DataArray type="Float32" Name="Velocity" NumberOfComponents="3" format="ascii">
-1094.43 78.0361 0
-1094.57 70.5252 0
-1094.78 63.1897 0
-1095.02 56.1413 0
-1095.25 49.4128 0
-1095.43 42.9531 0
-1095.61 36.7131 0
-1095.83 30.7428 0
-1096.06 25.1168 0
-1096.28 19.8647 0
-1096.48 14.9888 0
-1096.66 10.4835 0
-1096.81 6.33999 0
-1096.92 2.54604 0
-1096.98 -0.914423 0
-1096.99 -4.05968 0
-1096.94 -6.91037 0
-1096.83 -9.48637 0
-1096.66 -11.8082 0
-1096.43 -13.8943 0
-1096.13 -15.7639 0
-1095.77 -17.4319 0
-1095.35 -18.9148 0
-1094.88 -20.2273 0
-1094.36 -21.3818 0
-1093.78 -22.3902 0
-1093.16 -23.2621 0
-1092.49 -24.0096 0
-1091.79 -24.6395 0
-1091.04 -25.1607 0
-1090.25 -25.5801 0
-1089.43 -25.9039 0
-1088.57 -26.1388 0
-1087.68 -26.2898 0
-1086.76 -26.3618 0
-1085.81 -26.3599 0
-1084.82 -26.2883 0
-1083.8 -26.1513 0
-1082.76 -25.9532 0
-1081.68 -25.6975 0
-1080.58 -25.3885 0
-1079.44 -25.0291 0
-1078.28 -24.6246 0
-1077.09 -24.1766 0
-1075.88 -23.6895 0
-1074.63 -23.1668 0
-1073.36 -22.6115 0
-1072.07 -22.027 0
-1070.74 -21.416 0
-1069.4 -20.7819 0
-1068.03 -20.1274 0
-1066.63 -19.455 0
-1065.22 -18.768 0
-1063.78 -18.0688 0
-1062.32 -17.3595 0
-1060.84 -16.643 0
-1059.34 -15.9212 0
-1057.82 -15.1962 0
-1056.28 -14.47 0
-1054.72 -13.7449 0
-1053.15 -13.0225 0
-1051.56 -12.3043 0
-1049.96 -11.5914 0
-1048.34 -10.8871 0
-1046.71 -10.1909 0
-1045.06 -9.50546 0
-1043.41 -8.83083 0
-1041.74 -8.16917 0
-1040.06 -7.52176 0
-1038.36 -6.88786 0
-1036.67 -6.26949 0
-1034.96 -5.66761 0
-1033.24 -5.08233 0
-1031.51 -4.51556 0
-1029.78 -3.96614 0
-1028.04 -3.43591 0
-1026.29 -2.92494 0
-1024.54 -2.43333 0
-1022.78 -1.96098 0
-1021.02 -1.50908 0
-1019.25 -1.07833 0
-1017.48 -0.667894 0
-1015.71 -0.278185 0
-1013.93 0.0915867 0
-1012.16 0.439789 0
-1010.38 0.766844 0
-1008.59 1.07379 0
-1006.81 1.35958 0
-1005.03 1.62573 0
-1003.25 1.87168 0
-1001.46 2.0971 0
-999.679 2.30259 0
-997.896 2.48912 0
-996.114 2.65597 0
-994.333 2.80366 0
-992.554 2.93323 0
-990.776 3.04413 0
-989 3.13763 0
-987.226 3.21312 0
-985.455 3.27188 0
-983.686 3.31426 0
-981.919 3.34027 0
-980.156 3.351 0
-978.396 3.346 0
-976.638 3.32614 0
-974.884 3.29276 0
-973.133 3.24569 0
-971.385 3.18567 0
-969.641 3.11268 0
-967.901 3.02763 0
-966.164 2.93132 0
-964.432 2.82347 0
-962.703 2.70518 0
-960.978 2.57727 0
-959.257 2.44045 0
-957.541 2.29442 0
-955.827 2.14069 0
-954.118 1.97875 0
-952.412 1.80966 0
-950.711 1.63421 0
-949.014 1.45217 0
-947.32 1.26426 0
-945.631 1.0715 0
-943.946 0.874055 0
-942.263 0.672334 0
-940.585 0.466769 0
-938.911 0.258438 0
-937.241 0.0474558 0
-935.573 -0.165741 0
-933.91 -0.380704 0
-932.25 -0.597052 0
-930.594 -0.814155 0
-928.941 -1.03248 0
-927.291 -1.25072 0
-925.644 -1.46833 0
-923.999 -1.68607 0
-922.359 -1.90244 0
-920.721 -2.11786 0
-919.086 -2.33057 0
-917.453 -2.54229 0
-915.822 -2.75212 0
-914.195 -2.95901 0
-912.569 -3.16308 0
-910.948 -3.36433 0
-909.326 -3.56101 0
-907.707 -3.75522 0
-906.091 -3.94539 0
-904.475 -4.13215 0
-902.862 -4.31378 0
-901.251 -4.49241 0
-899.64 -4.66426 0
-898.033 -4.83361 0
-896.425 -4.99765 0
-894.82 -5.15699 0
-893.216 -5.31049 0
-891.613 -5.45872 0
-890.01 -5.60178 0
-888.409 -5.73959 0
-886.808 -5.87187 0
-885.209 -5.99875 0
-883.609 -6.1205 0
-882.011 -6.23536 0
-880.413 -6.34536 0
-878.816 -6.44948 0
-877.218 -6.54786 0
-875.621 -6.63996 0
-874.024 -6.7273 0
-872.427 -6.80837 0
-870.831 -6.88393 0
-869.234 -6.95402 0
-867.637 -7.0191 0
-866.04 -7.07896 0
-864.442 -7.13167 0
-862.845 -7.17924 0
-861.246 -7.22167 0
-859.648 -7.25998 0
-858.048 -7.29266 0
-856.448 -7.32 0
-854.849 -7.34231 0
-853.248 -7.35924 0
-851.646 -7.37216 0
-850.045 -7.38003 0
-848.442 -7.38359 0
-846.837 -7.3823 0
-845.233 -7.37608 0
-843.63 -7.36686 0
-842.024 -7.35294 0
-840.418 -7.3351 0
-838.811 -7.31329 0
-837.203 -7.28853 0
-835.593 -7.25899 0
-833.984 -7.22569 0
-832.372 -7.18942 0
-830.76 -7.15075 0
-829.147 -7.10868 0
-827.534 -7.06394 0
-825.918 -7.01686 0
-824.303 -6.96583 0
-822.685 -6.91177 0
-821.067 -6.85605 0
-819.447 -6.79805 0
-817.827 -6.73802 0
-816.206 -6.67611 0
-814.584 -6.61375 0
-812.96 -6.54845 0
-811.337 -6.48104 0
-809.712 -6.41204 0
-808.086 -6.34218 0
-806.458 -6.27111 0
-804.831 -6.19888 0
-803.201 -6.12566 0
-801.571 -6.05274 0
-799.941 -5.97688 0
-798.308 -5.90155 0
-796.675 -5.82724 0
-795.042 -5.75135 0
-793.407 -5.67487 0
-791.772 -5.59831 0
-790.135 -5.52172 0
-788.498 -5.44516 0
-786.86 -5.36928 0
-785.221 -5.29255 0
-783.582 -5.21745 0
-781.943 -5.14056 0
-780.303 -5.06619 0
-778.662 -4.99151 0
-777.02 -4.91852 0
-775.377 -4.84498 0
-773.734 -4.77286 0
-772.09 -4.7018 0
-770.446 -4.63157 0
-768.801 -4.56223 0
-767.156 -4.49371 0
-765.509 -4.42595 0
-763.863 -4.3604 0
-762.216 -4.29446 0
-760.569 -4.23104 0
-758.921 -4.16812 0
-757.273 -4.10635 0
-755.625 -4.04631 0
-753.976 -3.98921 0
-752.327 -3.93281 0
-750.677 -3.87669 0
-749.028 -3.82322 0
-747.377 -3.76931 0
-745.727 -3.71809 0
-744.076 -3.67004 0
-742.426 -3.62259 0
-740.775 -3.57637 0
-739.125 -3.53168 0
-737.473 -3.48825 0
-735.822 -3.44778 0
-734.171 -3.40738 0
-732.519 -3.3696 0
-730.869 -3.33388 0
-729.218 -3.30004 0
-727.567 -3.26631 0
-725.914 -3.23479 0
-724.263 -3.20561 0
-722.61 -3.17824 0
-720.959 -3.15073 0
-719.308 -3.12647 0
-717.657 -3.10347 0
-716.005 -3.08139 0
-714.354 -3.06234 0
-712.703 -3.04408 0
-711.053 -3.02716 0
-709.402 -3.0116 0
-707.752 -2.99712 0
-706.102 -2.98562 0
-704.451 -2.97407 0
-702.802 -2.96542 0
-701.152 -2.95816 0
-699.503 -2.95177 0
-697.854 -2.94528 0
-696.205 -2.94029 0
-694.554 -2.93814 0
-692.905 -2.93624 0
-691.257 -2.93564 0
-689.61 -2.93626 0
-687.962 -2.93806 0
-686.314 -2.94222 0
-684.667 -2.94673 0
-683.019 -2.95219 0
-681.372 -2.95851 0
-679.726 -2.96696 0
-678.078 -2.97468 0
-676.434 -2.98547 0
-674.788 -2.99327 0
-673.143 -3.00445 0
-671.496 -3.01637 0
-669.851 -3.02847 0
-668.205 -3.0407 0
-666.562 -3.05375 0
-664.919 -3.06832 0
-663.274 -3.08424 0
-661.631 -3.09918 0
-659.988 -3.11664 0
-658.345 -3.13392 0
-656.702 -3.14966 0
-655.059 -3.1676 0
-653.417 -3.18549 0
-651.774 -3.20349 0
-650.133 -3.22019 0
-648.491 -3.24023 0
-646.85 -3.25944 0
-645.211 -3.27909 0
-643.569 -3.29827 0
-641.929 -3.317 0
-640.289 -3.33641 0
-638.65 -3.35716 0
-637.01 -3.37755 0
-635.371 -3.39799 0
-633.732 -3.41837 0
-632.094 -3.43855 0
-630.455 -3.4582 0
-628.817 -3.47768 0
-627.179 -3.4979 0
-625.541 -3.5162 0
-623.903 -3.5353 0
-622.266 -3.55368 0
-620.628 -3.57332 0
-618.991 -3.59242 0
-617.352 -3.61161 0
-615.714 -3.63033 0
-614.077 -3.64958 0
-612.441 -3.66633 0
-610.805 -3.68333 0
-609.167 -3.70108 0
-607.529 -3.71919 0
-605.892 -3.7369 0
-604.257 -3.75328 0
-602.623 -3.76889 0
-600.986 -3.78483 0
-599.351 -3.80038 0
-597.715 -3.81626 0
-596.079 -3.82896 0
-594.444 -3.84275 0
-592.807 -3.85536 0
-591.171 -3.86933 0
-589.536 -3.88319 0
-587.9 -3.89634 0
-586.264 -3.90995 0
-584.63 -3.92161 0
-582.994 -3.93154 0
-581.358 -3.94131 0
-579.724 -3.95253 0
-578.089 -3.9607 0
-576.454 -3.97233 0
-574.818 -3.98135 0
-573.184 -3.98934 0
-571.549 -3.99474 0
-569.914 -4.00331 0
-568.279 -4.01156 0
-566.646 -4.01818 0
-565.011 -4.02382 0
-563.376 -4.02925 0
-561.741 -4.03448 0
-560.105 -4.03777 0
-558.47 -4.04321 0
-556.835 -4.04609 0
-555.201 -4.04841 0
-553.565 -4.05012 0
-551.931 -4.05239 0
-550.295 -4.05615 0
-548.66 -4.05732 0
-547.025 -4.0604 0
-545.391 -4.06043 0
-543.755 -4.06123 0
-542.12 -4.06205 0
-540.485 -4.05919 0
-538.848 -4.05778 0
-537.213 -4.05694 0
-535.578 -4.05558 0
-533.942 -4.05419 0
-532.307 -4.05207 0
-530.672 -4.04721 0
-529.035 -4.04471 0
-527.399 -4.04066 0
-525.762 -4.03731 0
-524.128 -4.03435 0
-522.491 -4.03031 0
-520.855 -4.02444 0
-519.218 -4.02121 0
-517.584 -4.01556 0
-515.949 -4.00774 0
-514.312 -4.00365 0
-512.675 -3.99516 0
-511.038 -3.98926 0
-509.402 -3.98037 0
-507.765 -3.97731 0
-506.128 -3.97221 0
-504.492 -3.96508 0
-502.853 -3.95597 0
-501.217 -3.95 0
-499.58 -3.94329 0
-497.943 -3.93567 0
-496.306 -3.92595 0
-494.668 -3.91852 0
-493.031 -3.91168 0
-491.393 -3.9018 0
-489.754 -3.89518 0
-488.117 -3.88817 0
-486.478 -3.8835 0
-484.84 -3.87386 0
-483.205 -3.86453 0
-481.569 -3.85631 0
-479.93 -3.84811 0
-478.29 -3.8393 0
-476.651 -3.83009 0
-475.014 -3.82308 0
-473.377 -3.81387 0
-471.737 -3.80576 0
-470.098 -3.797 0
-468.462 -3.78975 0
-466.822 -3.77905 0
-465.184 -3.77003 0
-463.546 -3.76395 0
-461.908 -3.75466 0
-460.269 -3.74846 0
-458.631 -3.74117 0
-456.992 -3.73181 0
-455.353 -3.72196 0
-453.711 -3.71543 0
-452.073 -3.70898 0
-450.432 -3.70158 0
-448.794 -3.69595 0
-447.158 -3.68866 0
-445.519 -3.67869 0
-443.878 -3.6716 0
-442.241 -3.66538 0
-440.601 -3.65864 0
-438.962 -3.65463 0
-437.322 -3.64565 0
-435.683 -3.64128 0
-434.044 -3.63563 0
-432.405 -3.62984 0
-430.766 -3.62231 0
-429.126 -3.61459 0
-427.486 -3.6083 0
-425.845 -3.60397 0
-424.206 -3.5987 0
-422.566 -3.59171 0
-420.926 -3.58719 0
-419.288 -3.58228 0
-417.65 -3.57831 0
-416.011 -3.57323 0
-414.369 -3.56673 0
-412.732 -3.56352 0
-411.091 -3.56126 0
-409.452 -3.5551 0
-407.812 -3.55169 0
-406.172 -3.54929 0
-404.532 -3.54418 0
-402.894 -3.53964 0
-401.255 -3.53778 0
-399.615 -3.53606 0
-397.976 -3.53141 0
-396.335 -3.52845 0
-394.694 -3.52705 0
-393.055 -3.52508 0
-391.418 -3.52031 0
-389.778 -3.52147 0
-388.138 -3.51883 0
-386.496 -3.51632 0
-384.857 -3.51548 0
-383.22 -3.51194 0
-381.579 -3.50992 0
-379.94 -3.51068 0
-378.3 -3.5094 0
-376.66 -3.50649 0
-375.022 -3.50762 0
-373.383 -3.5068 0
-371.743 -3.50602 0
-370.105 -3.50332 0
-368.467 -3.50275 0
-366.828 -3.50395 0
-365.188 -3.50381 0
-363.549 -3.50458 0
-361.909 -3.50174 0
-360.268 -3.50251 0
-358.63 -3.50412 0
-356.992 -3.50482 0
-355.353 -3.50602 0
-353.713 -3.50783 0
-352.077 -3.50968 0
-350.439 -3.50714 0
-348.8 -3.50913 0
-347.159 -3.51092 0
-345.524 -3.51025 0
-343.882 -3.51146 0
-342.242 -3.51472 0
-340.604 -3.51738 0
-338.968 -3.51713 0
-337.331 -3.51943 0
-335.692 -3.52191 0
-334.053 -3.52414 0
-332.413 -3.52528 0
-330.774 -3.52755 0
-329.138 -3.52638 0
-327.5 -3.53015 0
-325.861 -3.53032 0
-324.224 -3.53457 0
-322.582 -3.53615 0
-320.942 -3.54 0
-319.305 -3.54338 0
-317.667 -3.54326 0
-316.029 -3.54617 0
-314.39 -3.54786 0
-312.752 -3.55201 0
-311.117 -3.55708 0
-309.478 -3.55977 0
-307.841 -3.55916 0
-306.203 -3.56051 0
-304.566 -3.56195 0
-302.926 -3.56081 0
-301.288 -3.56595 0
-299.651 -3.56906 0
-298.013 -3.57318 0
-296.375 -3.57283 0
-294.738 -3.57523 0
-293.099 -3.57772 0
-291.461 -3.57942 0
-289.823 -3.58031 0
-288.183 -3.58365 0
-286.544 -3.5887 0
-284.908 -3.5928 0
-283.273 -3.59795 0
-281.634 -3.59552 0
-279.998 -3.59888 0
-278.359 -3.60045 0
-276.72 -3.60234 0
-275.083 -3.60434 0
-273.443 -3.60817 0
-271.807 -3.60879 0
-270.167 -3.60944 0
-268.532 -3.61109 0
-266.894 -3.61294 0
-265.258 -3.61765 0
-263.619 -3.61988 0
-261.982 -3.61897 0
-260.345 -3.621 0
-258.706 -3.62308 0
-257.07 -3.62358 0
-255.433 -3.62595 0
-253.795 -3.62507 0
-252.158 -3.62392 0
-250.521 -3.62894 0
-248.882 -3.62761 0
-247.245 -3.62927 0
-245.606 -3.63301 0
-243.968 -3.63403 0
-242.33 -3.63733 0
-240.691 -3.63962 0
-239.055 -3.63936 0
-237.417 -3.64309 0
-235.779 -3.64279 0
-234.142 -3.643 0
-232.506 -3.6451 0
-230.867 -3.64301 0
-229.231 -3.64181 0
-227.594 -3.64463 0
-225.956 -3.64611 0
-224.318 -3.64391 0
-222.682 -3.6447 0
-221.046 -3.64427 0
-219.41 -3.64901 0
-217.771 -3.65105 0
-216.135 -3.65165 0
-214.497 -3.64844 0
-212.861 -3.64971 0
-211.224 -3.64999 0
-209.587 -3.64656 0
-207.948 -3.64864 0
-206.312 -3.64928 0
-204.675 -3.64984 0
-203.039 -3.64885 0
-201.401 -3.64801 0
-199.763 -3.64928 0
-198.126 -3.64942 0
-196.488 -3.65121 0
-194.851 -3.64621 0
-193.216 -3.64869 0
-191.578 -3.65087 0
-189.94 -3.64664 0
-188.299 -3.64748 0
-186.664 -3.64692 0
-185.03 -3.64348 0
-183.39 -3.64636 0
-181.751 -3.64642 0
-180.117 -3.64505 0
-178.478 -3.64557 0
-176.842 -3.64366 0
-175.205 -3.64128 0
-173.566 -3.63936 0
-171.929 -3.63896 0
-170.288 -3.63558 0
-168.651 -3.63739 0
-167.018 -3.63595 0
-165.381 -3.63411 0
-163.743 -3.63214 0
-162.104 -3.63163 0
-160.465 -3.63119 0
-158.825 -3.63013 0
-157.19 -3.62683 0
-155.553 -3.62468 0
-153.915 -3.62362 0
-152.277 -3.62467 0
-150.642 -3.62556 0
-149.006 -3.62566 0
-147.37 -3.62405 0
-145.733 -3.62214 0
-144.096 -3.6222 0
-142.459 -3.61983 0
-140.821 -3.61744 0
-139.183 -3.61652 0
-137.546 -3.61237 0
-135.909 -3.61308 0
-134.273 -3.61578 0
-132.635 -3.61263 0
-130.999 -3.6069 0
-129.359 -3.60498 0
-127.719 -3.60555 0
-126.08 -3.60694 0
-124.447 -3.60269 0
-122.812 -3.6011 0
-121.172 -3.60302 0
-119.534 -3.60047 0
-117.896 -3.5963 0
-116.258 -3.59597 0
-114.619 -3.59839 0
-112.982 -3.59639 0
-111.343 -3.59695 0
-109.705 -3.59651 0
-108.068 -3.5963 0
-106.433 -3.5909 0
-104.797 -3.59064 0
-103.16 -3.59171 0
-101.52 -3.58633 0
-99.8817 -3.58711 0
-98.2453 -3.58739 0
-96.6082 -3.58715 0
-94.9682 -3.58684 0
-93.3326 -3.58361 0
-91.6964 -3.58145 0
-90.0611 -3.58008 0
-88.4232 -3.57944 0
-86.7828 -3.57828 0
-85.1454 -3.57992 0
-83.5078 -3.57943 0
-81.8701 -3.57698 0
-80.2328 -3.57516 0
-78.5945 -3.57435 0
-76.9581 -3.57627 0
-75.3201 -3.5744 0
-73.6826 -3.57073 0
-72.0481 -3.5701 0
-70.4086 -3.57001 0
-68.7725 -3.56714 0
-67.1317 -3.5636 0
-65.4934 -3.56347 0
-63.8558 -3.56401 0
-62.22 -3.56095 0
-60.5811 -3.55684 0
-58.941 -3.55789 0
-57.3027 -3.55827 0
-55.6663 -3.56136 0
-54.031 -3.55603 0
-52.3922 -3.55542 0
-50.7552 -3.55841 0
-49.1178 -3.55444 0
-47.4818 -3.55515 0
-45.8471 -3.55077 0
-44.2074 -3.55217 0
-42.5689 -3.55245 0
-40.9311 -3.55342 0
-39.2929 -3.55357 0
-37.6559 -3.55186 0
-36.0188 -3.54795 0
-34.382 -3.55 0
-32.7461 -3.54677 0
-31.1077 -3.54582 0
-29.4709 -3.54608 0
-27.8337 -3.54505 0
-26.1963 -3.54651 0
-24.5585 -3.54313 0
-22.9209 -3.54701 0
-21.2847 -3.54341 0
-19.6479 -3.54163 0
-18.0101 -3.54259 0
-16.3743 -3.53921 0
-14.7369 -3.53909 0
-13.0969 -3.53909 0
-11.4609 -3.53814 0
-9.82321 -3.53622 0
-8.18402 -3.53816 0
-6.54955 -3.53657 0
-4.91086 -3.54037 0
-3.2745 -3.53876 0
-1.6373 -3.53645 0
0 -3.53879 0
-1101.95 78.2197 0
-1101.94 70.6574 0
-1101.92 63.3031 0
-1101.86 56.2445 0
-1101.81 49.5073 0
-1101.78 43.0422 0
-1101.75 36.7996 0
-1101.67 30.828 0
-1101.54 25.2013 0
-1101.39 19.9507 0
-1101.22 15.0802 0
-1101.03 10.5859 0
-1100.82 6.46013 0
-1100.59 2.69107 0
-1100.32 -0.737928 0
-1100.02 -3.8455 0
-1099.69 -6.65368 0
-1099.31 -9.18363 0
-1098.89 -11.4568 0
-1098.42 -13.4945 0
-1097.91 -15.3147 0
-1097.36 -16.9348 0
-1096.76 -18.3712 0
-1096.13 -19.6383 0
-1095.45 -20.7496 0
-1094.73 -21.7167 0
-1093.98 -22.5501 0
-1093.19 -23.2601 0
-1092.37 -23.8544 0
-1091.51 -24.3415 0
-1090.63 -24.7281 0
-1089.71 -25.0208 0
-1088.77 -25.225 0
-1087.8 -25.346 0
-1086.8 -25.3889 0
-1085.77 -25.3582 0
-1084.72 -25.2585 0
-1083.64 -25.0934 0
-1082.54 -24.868 0
-1081.4 -24.5852 0
-1080.25 -24.2495 0
-1079.07 -23.8637 0
-1077.86 -23.4325 0
-1076.63 -22.959 0
-1075.38 -22.4465 0
-1074.1 -21.8987 0
-1072.8 -21.3191 0
-1071.47 -20.7106 0
-1070.13 -20.076 0
-1068.76 -19.4191 0
-1067.37 -18.7421 0
-1065.96 -18.0477 0
-1064.53 -17.3401 0
-1063.08 -16.6204 0
-1061.61 -15.8914 0
-1060.12 -15.1557 0
-1058.62 -14.4158 0
-1057.1 -13.6732 0
-1055.56 -12.93 0
-1054.01 -12.1884 0
-1052.44 -11.4507 0
-1050.85 -10.7176 0
-1049.26 -9.99103 0
-1047.65 -9.2727 0
-1046.03 -8.56417 0
-1044.39 -7.8663 0
-1042.75 -7.18057 0
-1041.09 -6.50768 0
-1039.42 -5.85002 0
-1037.75 -5.20712 0
-1036.06 -4.57958 0
-1034.37 -3.96906 0
-1032.67 -3.37611 0
-1030.96 -2.80165 0
-1029.24 -2.24603 0
-1027.52 -1.70929 0
-1025.79 -1.19291 0
-1024.06 -0.695798 0
-1022.32 -0.219549 0
-1020.58 0.236338 0
-1018.84 0.671425 0
-1017.09 1.08513 0
-1015.34 1.47768 0
-1013.58 1.84937 0
-1011.82 2.19971 0
-1010.06 2.5288 0
-1008.3 2.83682 0
-1006.54 3.12415 0
-1004.78 3.39061 0
-1003.01 3.63667 0
-1001.25 3.86203 0
-999.486 4.06729 0
-997.723 4.25293 0
-995.96 4.4186 0
-994.197 4.56526 0
-992.436 4.69356 0
-990.676 4.80336 0
-988.918 4.89459 0
-987.161 4.96842 0
-985.406 5.02513 0
-983.653 5.06482 0
-981.902 5.08839 0
-980.154 5.09612 0
-978.408 5.08841 0
-976.665 5.06584 0
-974.925 5.0293 0
-973.187 4.97931 0
-971.452 4.91581 0
-969.721 4.83947 0
-967.992 4.75125 0
-966.267 4.65123 0
-964.544 4.53965 0
-962.825 4.41775 0
-961.11 4.28629 0
-959.398 4.14573 0
-957.69 3.99654 0
-955.984 3.8387 0
-954.282 3.67331 0
-952.584 3.50065 0
-950.89 3.3211 0
-949.198 3.13532 0
-947.51 2.94392 0
-945.826 2.74763 0
-944.144 2.54677 0
-942.466 2.34149 0
-940.792 2.13257 0
-939.12 1.92078 0
-937.452 1.70656 0
-935.787 1.48981 0
-934.125 1.27114 0
-932.466 1.05183 0
-930.81 0.831474 0
-929.158 0.610205 0
-927.507 0.389293 0
-925.86 0.168752 0
-924.215 -0.0519653 0
-922.573 -0.270848 0
-920.933 -0.489107 0
-919.296 -0.704521 0
-917.662 -0.918345 0
-916.029 -1.1301 0
-914.399 -1.34005 0
-912.771 -1.54604 0
-911.144 -1.74896 0
-909.52 -1.9483 0
-907.898 -2.14417 0
-906.278 -2.33663 0
-904.659 -2.52393 0
-903.041 -2.70801 0
-901.425 -2.88714 0
-899.811 -3.06135 0
-898.198 -3.23203 0
-896.586 -3.39667 0
-894.976 -3.55742 0
-893.366 -3.71193 0
-891.758 -3.86124 0
-890.149 -4.00557 0
-888.543 -4.14363 0
-886.937 -4.27724 0
-885.331 -4.40459 0
-883.727 -4.52716 0
-882.123 -4.64275 0
-880.519 -4.75294 0
-878.916 -4.85754 0
-877.313 -4.95611 0
-875.71 -5.04887 0
-874.108 -5.13581 0
-872.506 -5.21687 0
-870.904 -5.29282 0
-869.301 -5.36271 0
-867.698 -5.42706 0
-866.096 -5.4872 0
-864.493 -5.53958 0
-862.89 -5.58732 0
-861.287 -5.62968 0
-859.682 -5.6665 0
-858.078 -5.69858 0
-856.473 -5.7261 0
-854.868 -5.74758 0
-853.263 -5.76432 0
-851.657 -5.77672 0
-850.051 -5.78406 0
-848.443 -5.78663 0
-846.835 -5.78469 0
-845.226 -5.77873 0
-843.618 -5.76798 0
-842.008 -5.75352 0
-840.398 -5.73477 0
-838.787 -5.71204 0
-837.176 -5.68596 0
-835.563 -5.65591 0
-833.95 -5.62197 0
-832.335 -5.58481 0
-830.72 -5.54491 0
-829.104 -5.50255 0
-827.487 -5.45684 0
-825.869 -5.40763 0
-824.25 -5.35618 0
-822.63 -5.30114 0
-821.01 -5.24416 0
-819.389 -5.18567 0
-817.767 -5.12508 0
-816.144 -5.06213 0
-814.52 -4.99815 0
-812.895 -4.9323 0
-811.269 -4.86416 0
-809.643 -4.79441 0
-808.015 -4.72349 0
-806.387 -4.65146 0
-804.757 -4.57852 0
-803.128 -4.50393 0
-801.497 -4.42916 0
-799.866 -4.3541 0
-798.233 -4.2777 0
-796.6 -4.20218 0
-794.966 -4.1259 0
-793.331 -4.04824 0
-791.695 -3.97102 0
-790.059 -3.89359 0
-788.422 -3.81657 0
-786.784 -3.73895 0
-785.146 -3.66249 0
-783.507 -3.58573 0
-781.868 -3.50912 0
-780.228 -3.43384 0
-778.588 -3.35938 0
-776.947 -3.2846 0
-775.305 -3.21131 0
-773.662 -3.1384 0
-772.02 -3.06707 0
-770.376 -2.99611 0
-768.733 -2.92597 0
-767.089 -2.85685 0
-765.443 -2.7888 0
-763.798 -2.7227 0
-762.152 -2.65689 0
-760.507 -2.59236 0
-758.86 -2.52888 0
-757.213 -2.46746 0
-755.566 -2.40725 0
-753.918 -2.3492 0
-752.27 -2.29271 0
-750.623 -2.23616 0
-748.974 -2.18186 0
-747.326 -2.12875 0
-745.678 -2.0782 0
-744.029 -2.02902 0
-742.38 -1.9812 0
-740.73 -1.93458 0
-739.081 -1.88988 0
-737.432 -1.84745 0
-735.782 -1.80601 0
-734.133 -1.7661 0
-732.483 -1.72782 0
-730.833 -1.69191 0
-729.184 -1.65693 0
-727.534 -1.62415 0
-725.884 -1.59314 0
-724.234 -1.56284 0
-722.584 -1.53505 0
-720.934 -1.5093 0
-719.285 -1.48396 0
-717.635 -1.46204 0
-715.985 -1.43958 0
-714.336 -1.42088 0
-712.686 -1.40189 0
-711.037 -1.38603 0
-709.388 -1.36984 0
-707.739 -1.35683 0
-706.091 -1.34481 0
-704.442 -1.33346 0
-702.793 -1.32475 0
-701.144 -1.31687 0
-699.496 -1.31124 0
-697.848 -1.30486 0
-696.2 -1.29972 0
-694.552 -1.29816 0
-692.905 -1.29772 0
-691.257 -1.29713 0
-689.61 -1.298 0
-687.964 -1.29996 0
-686.318 -1.30323 0
-684.671 -1.30828 0
-683.025 -1.31434 0
-681.379 -1.32083 0
-679.734 -1.32861 0
-678.088 -1.33738 0
-676.443 -1.34817 0
-674.797 -1.3571 0
-673.153 -1.36757 0
-671.508 -1.37947 0
-669.863 -1.39249 0
-668.219 -1.40438 0
-666.576 -1.41854 0
-664.932 -1.43396 0
-663.289 -1.44938 0
-661.646 -1.4655 0
-660.004 -1.48145 0
-658.361 -1.49943 0
-656.718 -1.51607 0
-655.077 -1.53378 0
-653.435 -1.55218 0
-651.793 -1.56947 0
-650.151 -1.5875 0
-648.511 -1.60763 0
-646.87 -1.62736 0
-645.229 -1.64729 0
-643.589 -1.66621 0
-641.949 -1.68578 0
-640.309 -1.70597 0
-638.669 -1.72608 0
-637.03 -1.74712 0
-635.391 -1.76782 0
-633.751 -1.78788 0
-632.113 -1.80748 0
-630.475 -1.82818 0
-628.837 -1.84821 0
-627.198 -1.8685 0
-625.56 -1.88772 0
-623.922 -1.907 0
-622.285 -1.9246 0
-620.647 -1.94451 0
-619.008 -1.96342 0
-617.37 -1.9831 0
-615.733 -2.0017 0
-614.096 -2.02031 0
-612.458 -2.03705 0
-610.822 -2.05497 0
-609.184 -2.07222 0
-607.547 -2.09121 0
-605.911 -2.10948 0
-604.274 -2.12502 0
-602.638 -2.14106 0
-601.002 -2.15686 0
-599.366 -2.1725 0
-597.73 -2.18845 0
-596.093 -2.2018 0
-594.457 -2.2155 0
-592.821 -2.22827 0
-591.185 -2.24165 0
-589.548 -2.25608 0
-587.912 -2.26943 0
-586.277 -2.28192 0
-584.64 -2.29399 0
-583.005 -2.30521 0
-581.369 -2.31527 0
-579.734 -2.32504 0
-578.098 -2.33487 0
-576.463 -2.34503 0
-574.828 -2.3546 0
-573.193 -2.36218 0
-571.557 -2.36862 0
-569.921 -2.37601 0
-568.286 -2.38464 0
-566.651 -2.39101 0
-565.017 -2.39707 0
-563.382 -2.40274 0
-561.746 -2.40859 0
-560.111 -2.41085 0
-558.475 -2.41589 0
-556.839 -2.41914 0
-555.202 -2.42128 0
-553.567 -2.42362 0
-551.932 -2.42634 0
-550.297 -2.42873 0
-548.662 -2.4316 0
-547.027 -2.43341 0
-545.391 -2.43424 0
-543.755 -2.43358 0
-542.119 -2.43408 0
-540.483 -2.43181 0
-538.847 -2.43143 0
-537.212 -2.42946 0
-535.576 -2.42785 0
-533.94 -2.42604 0
-532.304 -2.4245 0
-530.668 -2.41985 0
-529.031 -2.41678 0
-527.395 -2.41337 0
-525.76 -2.40973 0
-524.124 -2.40529 0
-522.487 -2.40234 0
-520.85 -2.39725 0
-519.215 -2.39225 0
-517.578 -2.38802 0
-515.942 -2.3814 0
-514.305 -2.37363 0
-512.668 -2.36794 0
-511.031 -2.36073 0
-509.396 -2.35375 0
-507.76 -2.34859 0
-506.121 -2.34205 0
-504.484 -2.33623 0
-502.848 -2.32908 0
-501.21 -2.32137 0
-499.573 -2.31246 0
-497.935 -2.30602 0
-496.298 -2.29899 0
-494.661 -2.2902 0
-493.024 -2.28057 0
-491.386 -2.27403 0
-489.748 -2.26623 0
-488.111 -2.25863 0
-486.471 -2.25307 0
-484.834 -2.24424 0
-483.197 -2.23614 0
-481.559 -2.22565 0
-479.92 -2.21757 0
-478.283 -2.20903 0
-476.644 -2.20206 0
-475.007 -2.19325 0
-473.368 -2.18353 0
-471.729 -2.17453 0
-470.091 -2.16643 0
-468.452 -2.15868 0
-466.814 -2.14994 0
-465.177 -2.14149 0
-463.538 -2.13444 0
-461.899 -2.1249 0
-460.26 -2.11812 0
-458.62 -2.10978 0
-456.982 -2.10113 0
-455.342 -2.0926 0
-453.705 -2.08499 0
-452.066 -2.07805 0
-450.427 -2.06997 0
-448.788 -2.06517 0
-447.148 -2.05737 0
-445.511 -2.04882 0
-443.872 -2.04175 0
-442.232 -2.03432 0
-440.593 -2.0288 0
-438.956 -2.02202 0
-437.316 -2.0157 0
-435.677 -2.01062 0
-434.038 -2.00444 0
-432.398 -1.99806 0
-430.758 -1.99066 0
-429.119 -1.98292 0
-427.479 -1.97682 0
-425.84 -1.97238 0
-424.201 -1.96648 0
-422.562 -1.9621 0
-420.922 -1.95641 0
-419.284 -1.95093 0
-417.645 -1.94769 0
-416.005 -1.94108 0
-414.368 -1.93636 0
-412.726 -1.93172 0
-411.086 -1.92928 0
-409.446 -1.92434 0
-407.809 -1.92189 0
-406.167 -1.91624 0
-404.528 -1.91395 0
-402.89 -1.90936 0
-401.251 -1.90643 0
-399.612 -1.90449 0
-397.972 -1.89949 0
-396.333 -1.89767 0
-394.694 -1.89568 0
-393.054 -1.89371 0
-391.415 -1.89082 0
-389.776 -1.88993 0
-388.136 -1.88711 0
-386.496 -1.88608 0
-384.857 -1.88423 0
-383.217 -1.88188 0
-381.579 -1.88144 0
-379.941 -1.87916 0
-378.301 -1.87801 0
-376.659 -1.87659 0
-375.021 -1.87649 0
-373.382 -1.87588 0
-371.743 -1.8757 0
-370.105 -1.87523 0
-368.466 -1.87442 0
-366.826 -1.87406 0
-365.188 -1.87408 0
-363.548 -1.87384 0
-361.909 -1.87256 0
-360.27 -1.8709 0
-358.632 -1.87398 0
-356.995 -1.87373 0
-355.354 -1.87501 0
-353.715 -1.87739 0
-352.077 -1.87849 0
-350.438 -1.87731 0
-348.8 -1.8786 0
-347.162 -1.88009 0
-345.522 -1.88021 0
-343.883 -1.88272 0
-342.246 -1.88457 0
-340.608 -1.88747 0
-338.97 -1.88793 0
-337.332 -1.88842 0
-335.693 -1.89095 0
-334.055 -1.89291 0
-332.414 -1.89593 0
-330.777 -1.89826 0
-329.139 -1.89781 0
-327.502 -1.89888 0
-325.863 -1.90037 0
-324.224 -1.90361 0
-322.585 -1.90718 0
-320.945 -1.91048 0
-319.307 -1.91437 0
-317.668 -1.91333 0
-316.031 -1.91553 0
-314.392 -1.91797 0
-312.757 -1.92304 0
-311.118 -1.92509 0
-309.479 -1.92739 0
-307.841 -1.92938 0
-306.203 -1.9285 0
-304.566 -1.93277 0
-302.93 -1.93149 0
-301.292 -1.9361 0
-299.654 -1.93868 0
-298.015 -1.94077 0
-296.378 -1.94384 0
-294.738 -1.94653 0
-293.1 -1.94734 0
-291.461 -1.94999 0
-289.823 -1.95177 0
-288.187 -1.95374 0
-286.551 -1.95806 0
-284.912 -1.96276 0
-283.273 -1.96487 0
-281.635 -1.96646 0
-279.997 -1.9683 0
-278.359 -1.97142 0
-276.722 -1.97288 0
-275.086 -1.97517 0
-273.447 -1.97884 0
-271.809 -1.97942 0
-270.171 -1.98071 0
-268.534 -1.98196 0
-266.897 -1.9859 0
-265.259 -1.98601 0
-263.621 -1.98818 0
-261.983 -1.9913 0
-260.346 -1.99118 0
-258.709 -1.99364 0
-257.071 -1.99609 0
-255.433 -1.99576 0
-253.797 -1.99739 0
-252.16 -1.99732 0
-250.522 -1.99861 0
-248.885 -2.00043 0
-247.247 -2.00073 0
-245.61 -2.00306 0
-243.97 -2.0039 0
-242.333 -2.0069 0
-240.696 -2.00966 0
-239.056 -2.01049 0
-237.42 -2.01358 0
-235.782 -2.01378 0
-234.144 -2.01371 0
-232.506 -2.01553 0
-230.869 -2.01451 0
-229.231 -2.01584 0
-227.594 -2.01582 0
-225.956 -2.01577 0
-224.319 -2.01495 0
-222.683 -2.01419 0
-221.048 -2.0176 0
-219.411 -2.01894 0
-217.772 -2.02285 0
-216.136 -2.0217 0
-214.499 -2.02159 0
-212.861 -2.02033 0
-211.221 -2.02124 0
-209.586 -2.01726 0
-207.95 -2.01894 0
-206.312 -2.01966 0
-204.675 -2.02032 0
-203.037 -2.02081 0
-201.402 -2.01864 0
-199.763 -2.01962 0
-198.125 -2.02045 0
-196.487 -2.02128 0
-194.85 -2.01971 0
-193.213 -2.01887 0
-191.574 -2.02024 0
-189.936 -2.01877 0
-188.301 -2.01954 0
-186.663 -2.01784 0
-185.027 -2.01591 0
-183.388 -2.01669 0
-181.753 -2.01612 0
-180.116 -2.01659 0
-178.48 -2.01631 0
-176.841 -2.01429 0
-175.203 -2.011 0
-173.566 -2.00887 0
-171.927 -2.00872 0
-170.291 -2.00744 0
-168.652 -2.00749 0
-167.014 -2.00714 0
-165.378 -2.00521 0
-163.741 -2.00391 0
-162.102 -2.00367 0
-160.463 -2.00101 0
-158.826 -2.00075 0
-157.188 -1.99858 0
-155.551 -1.99719 0
-153.915 -1.99702 0
-152.28 -1.99503 0
-150.642 -1.99663 0
-149.005 -1.9961 0
-147.368 -1.99508 0
-145.732 -1.99455 0
-144.093 -1.99309 0
-142.457 -1.98982 0
-140.82 -1.99141 0
-139.181 -1.98823 0
-137.543 -1.98356 0
-135.906 -1.9839 0
-134.27 -1.9835 0
-132.632 -1.98222 0
-130.995 -1.98069 0
-129.358 -1.97526 0
-127.721 -1.97517 0
-126.084 -1.97494 0
-124.446 -1.97559 0
-122.808 -1.97194 0
-121.171 -1.97169 0
-119.532 -1.97004 0
-117.893 -1.96616 0
-116.257 -1.9683 0
-114.621 -1.96829 0
-112.982 -1.96816 0
-111.343 -1.96712 0
-109.707 -1.96648 0
-108.068 -1.96553 0
-106.431 -1.96399 0
-104.795 -1.963 0
-103.158 -1.96112 0
-101.519 -1.95704 0
-99.8823 -1.95769 0
-98.2444 -1.95869 0
-96.6072 -1.95748 0
-94.9712 -1.95692 0
-93.3317 -1.95485 0
-91.6943 -1.95327 0
-90.0567 -1.9521 0
-88.4194 -1.95087 0
-86.7831 -1.94871 0
-85.1446 -1.9515 0
-83.5061 -1.94967 0
-81.869 -1.94653 0
-80.2331 -1.94686 0
-78.5955 -1.94591 0
-76.9559 -1.94593 0
-75.3191 -1.94506 0
-73.6833 -1.94195 0
-72.0458 -1.94039 0
-70.4085 -1.93981 0
-68.7689 -1.93546 0
-67.1314 -1.93265 0
-65.4941 -1.93533 0
-63.8555 -1.93378 0
-62.2185 -1.9301 0
-60.5798 -1.92886 0
-58.9439 -1.92806 0
-57.3047 -1.92911 0
-55.6668 -1.93018 0
-54.0281 -1.92874 0
-52.3913 -1.92759 0
-50.7561 -1.92658 0
-49.1183 -1.92651 0
-47.4816 -1.9255 0
-45.8439 -1.92448 0
-44.208 -1.92153 0
-42.5705 -1.92275 0
-40.9319 -1.92459 0
-39.2949 -1.92326 0
-37.6552 -1.92103 0
-36.018 -1.91987 0
-34.3802 -1.92106 0
-32.7434 -1.91925 0
-31.1068 -1.91658 0
-29.4717 -1.9166 0
-27.8324 -1.9163 0
-26.1936 -1.91629 0
-24.5576 -1.91669 0
-22.9201 -1.91583 0
-21.2833 -1.91466 0
-19.647 -1.91409 0
-18.0095 -1.91234 0
-16.3723 -1.91221 0
-14.7354 -1.90928 0
-13.0959 -1.90858 0
-11.4589 -1.90902 0
-9.82257 -1.90772 0
-8.1855 -1.90732 0
-6.54987 -1.90849 0
-4.91242 -1.91118 0
-3.27258 -1.9103 0
-1.63623 -1.909 0
0 -1.90858 0
-1109.81 78.7518 0
-1109.4 71.0092 0
-1109.13 63.68 0
-1108.82 56.6341 0
-1108.5 49.8656 0
-1108.19 43.3693 0
-1107.86 37.1548 0
-1107.48 31.234 0
-1107.03 25.6366 0
-1106.54 20.3978 0
-1106.02 15.5342 0
-1105.47 11.0468 0
-1104.91 6.92982 0
-1104.34 3.17241 0
-1103.74 -0.241163 0
-1103.13 -3.33007 0
-1102.5 -6.11587 0
-1101.85 -8.61995 0
-1101.17 -10.8647 0
-1100.47 -12.8718 0
-1099.75 -14.6602 0
-1098.99 -16.2487 0
-1098.21 -17.6533 0
-1097.4 -18.8892 0
-1096.57 -19.9695 0
-1095.71 -20.9063 0
-1094.82 -21.7111 0
-1093.91 -22.3925 0
-1092.97 -22.9594 0
-1092.01 -23.4201 0
-1091.03 -23.781 0
-1090.02 -24.0482 0
-1088.99 -24.2274 0
-1087.93 -24.3237 0
-1086.86 -24.3424 0
-1085.76 -24.2876 0
-1084.64 -24.1638 0
-1083.49 -23.9752 0
-1082.33 -23.7261 0
-1081.14 -23.4201 0
-1079.93 -23.0607 0
-1078.71 -22.6526 0
-1077.45 -22.1985 0
-1076.18 -21.7027 0
-1074.89 -21.1682 0
-1073.58 -20.5986 0
-1072.25 -19.9972 0
-1070.89 -19.3679 0
-1069.52 -18.7129 0
-1068.13 -18.0357 0
-1066.72 -17.3392 0
-1065.3 -16.626 0
-1063.85 -15.8995 0
-1062.39 -15.1618 0
-1060.91 -14.4155 0
-1059.42 -13.6632 0
-1057.91 -12.9071 0
-1056.39 -12.149 0
-1054.85 -11.3908 0
-1053.3 -10.6348 0
-1051.73 -9.88306 0
-1050.15 -9.13645 0
-1048.56 -8.3978 0
-1046.96 -7.66713 0
-1045.35 -6.94669 0
-1043.72 -6.23823 0
-1042.09 -5.54201 0
-1040.44 -4.85957 0
-1038.79 -4.1926 0
-1037.13 -3.54123 0
-1035.46 -2.90588 0
-1033.78 -2.28732 0
-1032.1 -1.68736 0
-1030.41 -1.10577 0
-1028.71 -0.543896 0
-1027.01 -0.00177508 0
-1025.3 0.520267 0
-1023.59 1.02159 0
-1021.87 1.50259 0
-1020.15 1.9622 0
-1018.42 2.40062 0
-1016.69 2.8172 0
-1014.96 3.21274 0
-1013.23 3.58709 0
-1011.49 3.93967 0
-1009.75 4.27023 0
-1008.01 4.57987 0
-1006.27 4.86811 0
-1004.52 5.1354 0
-1002.78 5.38206 0
-1001.04 5.60732 0
-999.292 5.81241 0
-997.547 5.99764 0
-995.803 6.16298 0
-994.059 6.30896 0
-992.316 6.43613 0
-990.575 6.54485 0
-988.834 6.63483 0
-987.094 6.70674 0
-985.355 6.76155 0
-983.619 6.79978 0
-981.883 6.82136 0
-980.15 6.82655 0
-978.419 6.81634 0