<?xml version="1.0"?>
<VTKFile type="StructuredGrid"  version="0.1" byte_order="LittleEndian" compressor="vtkZLibDataCompressor">
  <StructuredGrid WholeExtent="0 700 0 30 0 0">
    <Piece Extent="0 700 0 30 0 0">
      <PointData Vectors="Velocity">
        <DataArray type="Float32" Name="Velocity" NumberOfComponents="3" format="ascii">
-1091.24 64.4238 0
-1091.42 57.5603 0
-1091.67 50.8781 0
-1091.95 44.4966 0
-1092.21 38.4484 0
-1092.42 32.6652 0
-1092.62 27.0887 0
-1092.86 21.7887 0
-1093.11 16.8497 0
-1093.35 12.296 0
-1093.57 8.12469 0
-1093.75 4.32662 0
-1093.89 0.890888 0
-1093.99 -2.19861 0
-1094.03 -4.96173 0
-1094.01 -7.41902 0
-1093.92 -9.59447 0
-1093.76 -11.5109 0
-1093.53 -13.1892 0
-1093.23 -14.6508 0
-1092.86 -15.9148 0
-1092.42 -16.9983 0
-1091.92 -17.9188 0
-1091.36 -18.6897 0
-1090.74 -19.3257 0
-1090.07 -19.8388 0
-1089.34 -20.24 0
-1088.57 -20.5383 0
-1087.75 -20.7441 0
-1086.89 -20.8639 0
-1085.99 -20.9048 0
-1085.06 -20.8733 0
-1084.08 -20.7763 0
-1083.08 -20.6189 0
-1082.03 -20.4061 0
-1080.96 -20.1414 0
-1079.85 -19.8301 0
-1078.72 -19.4756 0
-1077.55 -19.0815 0
-1076.35 -18.6528 0
-1075.12 -18.1915 0
-1073.87 -17.7018 0
-1072.59 -17.1864 0
-1071.28 -16.6489 0
-1069.95 -16.0928 0
-1068.59 -15.5209 0
-1067.2 -14.9353 0
-1065.79 -14.3391 0
-1064.36 -13.7346 0
-1062.91 -13.1244 0
-1061.43 -12.5101 0
-1059.94 -11.8943 0
-1058.42 -11.2795 0
-1056.89 -10.6677 0
-1055.34 -10.0613 0
-1053.77 -9.46048 0
-1052.18 -8.86764 0
-1050.58 -8.28393 0
-1048.97 -7.7114 0
-1047.34 -7.15088 0
-1045.69 -6.60306 0
-1044.04 -6.07039 0
-1042.37 -5.55251 0
-1040.7 -5.05049 0
-1039.01 -4.56509 0
-1037.31 -4.09706 0
-1035.61 -3.64737 0
-1033.9 -3.21637 0
-1032.18 -2.80506 0
-1030.46 -2.41227 0
-1028.72 -2.03954 0
-1026.99 -1.68648 0
-1025.25 -1.35471 0
-1023.5 -1.04155 0
-1021.75 -0.748997 0
-1020 -0.476364 0
-1018.25 -0.223511 0
-1016.49 0.00846155 0
-1014.74 0.221526 0
-1012.98 0.41504 0
-1011.22 0.588398 0
-1009.46 0.743116 0
-1007.71 0.878978 0
-1005.95 0.99699 0
-1004.19 1.09694 0
-1002.44 1.17866 0
-1000.68 1.24374 0
-998.93 1.2923 0
-997.18 1.3238 0
-995.432 1.33987 0
-993.687 1.34119 0
-991.945 1.3273 0
-990.205 1.30059 0
-988.469 1.25835 0
-986.737 1.20487 0
-985.008 1.13862 0
-983.282 1.06025 0
-981.56 0.97045 0
-979.842 0.870762 0
-978.128 0.760923 0
-976.417 0.641485 0
-974.71 0.513229 0
-973.008 0.377273 0
-971.309 0.233461 0
-969.615 0.0822843 0
-967.925 -0.074601 0
-966.239 -0.238116 0
-964.558 -0.406077 0
-962.879 -0.579262 0
-961.205 -0.757797 0
-959.536 -0.938065 0
-957.87 -1.12287 0
-956.207 -1.31046 0
-954.549 -1.49974 0
-952.896 -1.68975 0
-951.245 -1.88257 0
-949.597 -2.07543 0
-947.954 -2.26769 0
-946.313 -2.46104 0
-944.677 -2.65305 0
-943.042 -2.84505 0
-941.411 -3.03512 0
-939.784 -3.22309 0
-938.16 -3.40976 0
-936.538 -3.59272 0
-934.917 -3.77473 0
-933.3 -3.95295 0
-931.686 -4.12772 0
-930.073 -4.29994 0
-928.462 -4.46856 0
-926.854 -4.63258 0
-925.248 -4.7904 0
-923.644 -4.94543 0
-922.041 -5.09587 0
-920.44 -5.24214 0
-918.841 -5.38333 0
-917.242 -5.5193 0
-915.645 -5.64957 0
-914.049 -5.77493 0
-912.455 -5.8959 0
-910.86 -6.01182 0
-909.266 -6.12039 0
-907.673 -6.22483 0
-906.08 -6.3225 0
-904.488 -6.41586 0
-902.896 -6.50411 0
-901.306 -6.58601 0
-899.716 -6.66322 0
-898.126 -6.73342 0
-896.534 -6.7998 0
-894.945 -6.86108 0
-893.354 -6.91552 0
-891.763 -6.96461 0
-890.172 -7.00913 0
-888.58 -7.0483 0
-886.988 -7.08372 0
-885.396 -7.11304 0
-883.802 -7.13737 0
-882.209 -7.15652 0
-880.615 -7.17208 0
-879.02 -7.18402 0
-877.424 -7.19101 0
-875.827 -7.19325 0
-874.23 -7.19079 0
-872.632 -7.18386 0
-871.034 -7.17391 0
-869.435 -7.16133 0
-867.834 -7.14512 0
-866.233 -7.12287 0
-864.63 -7.09968 0
-863.027 -7.07125 0
-861.422 -7.04104 0
-859.817 -7.00749 0
-858.21 -6.9719 0
-856.603 -6.93372 0
-854.995 -6.89412 0
-853.384 -6.85072 0
-851.774 -6.80529 0
-850.163 -6.75849 0
-848.55 -6.71005 0
-846.938 -6.65904 0
-845.324 -6.60663 0
-843.707 -6.55372 0
-842.09 -6.49869 0
-840.472 -6.44287 0
-838.853 -6.38668 0
-837.233 -6.32913 0
-835.612 -6.27058 0
-833.989 -6.21117 0
-832.366 -6.15182 0
-830.744 -6.09266 0
-829.12 -6.03344 0
-827.494 -5.97218 0
-825.867 -5.91274 0
-824.24 -5.85167 0
-822.612 -5.79266 0
-820.984 -5.7327 0
-819.355 -5.67199 0
-817.725 -5.61071 0
-816.095 -5.55373 0
-814.462 -5.49747 0
-812.829 -5.44098 0
-811.197 -5.38595 0
-809.563 -5.32909 0
-807.93 -5.27535 0
-806.295 -5.22322 0
-804.659 -5.17178 0
-803.024 -5.1205 0
-801.388 -5.07045 0
-799.751 -5.02208 0
-798.113 -4.97576 0
-796.475 -4.929 0
-794.838 -4.88591 0
-793.199 -4.84273 0
-791.561 -4.80216 0
-789.922 -4.76285 0
-788.284 -4.72202 0
-786.644 -4.68425 0
-785.005 -4.64889 0
-783.365 -4.61577 0
-781.725 -4.58253 0
-780.086 -4.55354 0
-778.446 -4.52471 0
-776.805 -4.49603 0
-775.165 -4.47042 0
-773.526 -4.44533 0
-771.886 -4.42241 0
-770.246 -4.40093 0
-768.606 -4.38039 0
-766.966 -4.36147 0
-765.326 -4.34346 0
-763.686 -4.32843 0
-762.046 -4.31515 0
-760.405 -4.30296 0
-758.766 -4.29165 0
-757.127 -4.28094 0
-755.487 -4.2742 0
-753.848 -4.267 0
-752.208 -4.25997 0
-750.568 -4.2558 0
-748.93 -4.25208 0
-747.291 -4.25097 0
-745.653 -4.24847 0
-744.016 -4.25086 0
-742.377 -4.25382 0
-740.74 -4.25542 0
-739.104 -4.25964 0
-737.467 -4.26341 0
-735.829 -4.26929 0
-734.192 -4.2755 0
-732.555 -4.28352 0
-730.919 -4.29133 0
-729.283 -4.29991 0
-727.648 -4.31023 0
-726.013 -4.32342 0
-724.38 -4.33569 0
-722.746 -4.34938 0
-721.11 -4.36097 0
-719.475 -4.37431 0
-717.843 -4.3893 0
-716.21 -4.4037 0
-714.577 -4.4192 0
-712.944 -4.43424 0
-711.312 -4.44991 0
-709.68 -4.46735 0
-708.049 -4.48354 0
-706.415 -4.50064 0
-704.784 -4.51689 0
-703.153 -4.53508 0
-701.521 -4.55352 0
-699.892 -4.5697 0
-698.261 -4.58793 0
-696.631 -4.60592 0
-695 -4.62382 0
-693.372 -4.64015 0
-691.743 -4.65943 0
-690.113 -4.67919 0
-688.484 -4.69696 0
-686.855 -4.71587 0
-685.228 -4.73325 0
-683.6 -4.75115 0
-681.971 -4.76738 0
-680.342 -4.78373 0
-678.715 -4.8004 0
-677.087 -4.8186 0
-675.461 -4.83466 0
-673.835 -4.85147 0
-672.208 -4.86927 0
-670.58 -4.8838 0
-668.953 -4.89948 0
-667.328 -4.91535 0
-665.7 -4.93032 0
-664.073 -4.94414 0
-662.449 -4.95827 0
-660.823 -4.97054 0
-659.197 -4.98492 0
-657.571 -4.99732 0
-655.946 -5.01058 0
-654.321 -5.02071 0
-652.695 -5.03225 0
-651.07 -5.04372 0
-649.445 -5.05469 0
-647.82 -5.06439 0
-646.195 -5.07325 0
-644.571 -5.08233 0
-642.944 -5.08891 0
-641.318 -5.09726 0
-639.693 -5.10474 0
-638.07 -5.1115 0
-636.444 -5.11927 0
-634.819 -5.12582 0
-633.194 -5.13019 0
-631.569 -5.1362 0
-629.943 -5.14003 0
-628.317 -5.14491 0
-626.693 -5.14996 0
-625.068 -5.15242 0
-623.443 -5.1544 0
-621.819 -5.15745 0
-620.193 -5.16153 0
-618.568 -5.15851 0
-616.944 -5.15992 0
-615.316 -5.16107 0
-613.692 -5.16161 0
-612.066 -5.15852 0
-610.439 -5.15751 0
-608.813 -5.15852 0
-607.187 -5.15724 0
-605.563 -5.15395 0
-603.937 -5.15246 0
-602.311 -5.14888 0
-600.685 -5.14755 0
-599.059 -5.14481 0
-597.434 -5.14059 0
-595.808 -5.13704 0
-594.182 -5.13292 0
-592.556 -5.12766 0
-590.932 -5.12358 0
-589.304 -5.11567 0
-587.678 -5.11086 0
-586.051 -5.10502 0
-584.424 -5.10012 0
-582.799 -5.09528 0
-581.171 -5.08887 0
-579.546 -5.08212 0
-577.918 -5.07653 0
-576.292 -5.06869 0
-574.663 -5.06135 0
-573.035 -5.05449 0
-571.409 -5.05004 0
-569.781 -5.04227 0
-568.154 -5.03436 0
-566.526 -5.02619 0
-564.899 -5.01934 0
-563.27 -5.01087 0
-561.643 -5.00198 0
-560.014 -4.99171 0
-558.385 -4.98231 0
-556.756 -4.97668 0
-555.129 -4.96769 0
-553.502 -4.96248 0
-551.874 -4.952 0
-550.244 -4.94688 0
-548.615 -4.93887 0
-546.989 -4.9292 0
-545.359 -4.9216 0
-543.732 -4.91405 0
-542.102 -4.90411 0
-540.474 -4.89733 0
-538.845 -4.88995 0
-537.215 -4.88204 0
-535.586 -4.87573 0
-533.958 -4.86656 0
-532.327 -4.85816 0
-530.699 -4.85228 0
-529.072 -4.84317 0
-527.442 -4.83554 0
-525.814 -4.83009 0
-524.184 -4.8217 0
-522.552 -4.81473 0
-520.924 -4.80849 0
-519.295 -4.80177 0
-517.666 -4.79563 0
-516.037 -4.78861 0
-514.409 -4.78362 0
-512.779 -4.77611 0
-511.151 -4.76906 0
-509.518 -4.76354 0
-507.887 -4.75612 0
-506.257 -4.75167 0
-504.629 -4.74612 0
-503 -4.74173 0
-501.373 -4.73617 0
-499.743 -4.73069 0
-498.113 -4.7267 0
-496.483 -4.72108 0
-494.854 -4.71583 0
-493.223 -4.7079 0
-491.594 -4.70384 0
-489.965 -4.70282 0
-488.337 -4.69881 0
-486.706 -4.69459 0
-485.075 -4.69041 0
-483.446 -4.68587 0
-481.818 -4.68239 0
-480.186 -4.67578 0
-478.557 -4.67376 0
-476.929 -4.67009 0
-475.301 -4.66818 0
-473.669 -4.66673 0
-472.04 -4.66341 0
-470.411 -4.66052 0
-468.783 -4.65755 0
-467.152 -4.65513 0
-465.522 -4.65382 0
-463.893 -4.65211 0
-462.262 -4.64967 0
-460.63 -4.64979 0
-459.001 -4.64621 0
-457.371 -4.64759 0
-455.743 -4.64304 0
-454.114 -4.64359 0
-452.485 -4.64051 0
-450.857 -4.64382 0
-449.228 -4.63948 0
-447.599 -4.63933 0
-445.97 -4.63908 0
-444.34 -4.63784 0
-442.713 -4.63623 0
-441.086 -4.63562 0
-439.458 -4.63523 0
-437.829 -4.63648 0
-436.199 -4.63898 0
-434.571 -4.63974 0
-432.943 -4.6396 0
-431.311 -4.63927 0
-429.683 -4.64024 0
-428.054 -4.63876 0
-426.424 -4.64059 0
-424.795 -4.63927 0
-423.166 -4.6386 0
-421.54 -4.64053 0
-419.911 -4.63904 0
-418.283 -4.63773 0
-416.652 -4.64085 0
-415.025 -4.64113 0
-413.397 -4.63984 0
-411.77 -4.64016 0
-410.142 -4.64303 0
-408.513 -4.64543 0
-406.884 -4.64549 0
-405.257 -4.64432 0
-403.628 -4.64525 0
-401.998 -4.6453 0
-400.369 -4.64413 0
-398.743 -4.64587 0
-397.115 -4.64886 0
-395.485 -4.6489 0
-393.858 -4.65062 0
-392.229 -4.64887 0
-390.602 -4.65008 0
-388.974 -4.65014 0
-387.346 -4.64974 0
-385.717 -4.65002 0
-384.089 -4.65159 0
-382.461 -4.6511 0
-380.831 -4.64991 0
-379.204 -4.64968 0
-377.577 -4.65258 0
-375.948 -4.6582 0
-374.321 -4.65552 0
-372.691 -4.6554 0
-371.063 -4.65785 0
-369.435 -4.65823 0
-367.807 -4.65789 0
-366.18 -4.65846 0
-364.553 -4.66114 0
-362.925 -4.65938 0
-361.297 -4.6573 0
-359.669 -4.65913 0
-358.041 -4.659 0
-356.415 -4.65657 0
-354.788 -4.65683 0
-353.158 -4.65706 0
-351.534 -4.65918 0
-349.905 -4.65949 0
-348.276 -4.65699 0
-346.649 -4.65746 0
-345.023 -4.65819 0
-343.395 -4.65793 0
-341.765 -4.65602 0
-340.137 -4.65607 0
-338.509 -4.65881 0
-336.883 -4.65566 0
-335.253 -4.65503 0
-333.627 -4.65437 0
-332.002 -4.65801 0
-330.372 -4.65563 0
-328.746 -4.65311 0
-327.117 -4.65451 0
-325.489 -4.65299 0
-323.861 -4.64965 0
-322.233 -4.64993 0
-320.605 -4.64668 0
-318.977 -4.64547 0
-317.353 -4.64731 0
-315.72 -4.64617 0
-314.093 -4.64507 0
-312.468 -4.64618 0
-310.842 -4.64369 0
-309.216 -4.63993 0
-307.586 -4.63931 0
-305.961 -4.63933 0
-304.33 -4.63732 0
-302.702 -4.63626 0
-301.075 -4.63648 0
-299.446 -4.63516 0
-297.818 -4.63598 0
-296.191 -4.63069 0
-294.561 -4.63166 0
-292.933 -4.62917 0
-291.305 -4.62754 0
-289.676 -4.62903 0
-288.05 -4.6262 0
-286.423 -4.62452 0
-284.796 -4.62408 0
-283.172 -4.62485 0
-281.545 -4.62049 0
-279.918 -4.61708 0
-278.288 -4.61746 0
-276.657 -4.61477 0
-275.029 -4.61406 0
-273.403 -4.61364 0
-271.775 -4.6131 0
-270.147 -4.60601 0
-268.52 -4.60474 0
-266.892 -4.60641 0
-265.265 -4.60544 0
-263.638 -4.60284 0
-262.011 -4.6013 0
-260.383 -4.59493 0
-258.757 -4.59473 0
-257.128 -4.58967 0
-255.498 -4.59023 0
-253.871 -4.58732 0
-252.244 -4.58426 0
-250.617 -4.58322 0
-248.988 -4.5844 0
-247.363 -4.58173 0
-245.733 -4.5782 0
-244.106 -4.57722 0
-242.478 -4.57353 0
-240.849 -4.57517 0
-239.221 -4.57447 0
-237.593 -4.57255 0
-235.968 -4.57206 0
-234.34 -4.57156 0
-232.713 -4.57013 0
-231.084 -4.56579 0
-229.458 -4.56748 0
-227.829 -4.56423 0
-226.2 -4.56268 0
-224.575 -4.55971 0
-222.946 -4.55683 0
-221.316 -4.55429 0
-219.69 -4.55409 0
-218.064 -4.55477 0
-216.438 -4.55115 0
-214.809 -4.55106 0
-213.18 -4.54405 0
-211.553 -4.54745 0
-209.922 -4.54343 0
-208.296 -4.5408 0
-206.666 -4.54309 0
-205.035 -4.53862 0
-203.409 -4.53788 0
-201.781 -4.53873 0
-200.153 -4.53532 0
-198.525 -4.53269 0
-196.899 -4.53384 0
-195.267 -4.53257 0
-193.638 -4.53035 0
-192.012 -4.52975 0
-190.386 -4.52854 0
-188.758 -4.52739 0
-187.129 -4.52818 0
-185.502 -4.52753 0
-183.877 -4.52633 0
-182.249 -4.5225 0
-180.622 -4.52322 0
-178.994 -4.52462 0
-177.367 -4.52678 0
-175.741 -4.52089 0
-174.115 -4.52109 0
-172.486 -4.52016 0
-170.859 -4.51559 0
-169.23 -4.51771 0
-167.6 -4.51645 0
-165.97 -4.51237 0
-164.345 -4.51215 0
-162.716 -4.51243 0
-161.086 -4.51472 0
-159.458 -4.51298 0
-157.829 -4.51282 0
-156.206 -4.51042 0
-154.581 -4.51192 0
-152.953 -4.51086 0
-151.324 -4.51021 0
-149.699 -4.50753 0
-148.069 -4.50448 0
-146.444 -4.50573 0
-144.814 -4.50546 0
-143.187 -4.50628 0
-141.562 -4.50696 0
-139.935 -4.50622 0
-138.307 -4.50856 0
-136.678 -4.50876 0
-135.051 -4.50849 0
-133.423 -4.50436 0
-131.797 -4.50411 0
-130.17 -4.50157 0
-128.541 -4.50428 0
-126.911 -4.50016 0
-125.286 -4.50049 0
-123.657 -4.49999 0
-122.03 -4.5028 0
-120.404 -4.50415 0
-118.773 -4.50207 0
-117.146 -4.50215 0
-115.519 -4.50431 0
-113.893 -4.50425 0
-112.266 -4.50629 0
-110.639 -4.50739 0
-109.012 -4.50347 0
-107.38 -4.49894 0
-105.752 -4.49808 0
-104.13 -4.50253 0
-102.502 -4.50277 0
-100.876 -4.50248 0
-99.2476 -4.50249 0
-97.6167 -4.50296 0
-95.9896 -4.50331 0
-94.3622 -4.50087 0
-92.7364 -4.50287 0
-91.1103 -4.5038 0
-89.4838 -4.50326 0
-87.8586 -4.50633 0
-86.2304 -4.50471 0
-84.6024 -4.5084 0
-82.9794 -4.50612 0
-81.3468 -4.50602 0
-79.7196 -4.50589 0
-78.0899 -4.50522 0
-76.4637 -4.50349 0
-74.8379 -4.50292 0
-73.2136 -4.5042 0
-71.586 -4.50544 0
-69.9584 -4.50513 0
-68.3334 -4.50669 0
-66.7066 -4.50494 0
-65.0758 -4.50274 0
-63.4459 -4.50848 0
-61.8214 -4.50842 0
-60.1976 -4.50656 0
-58.5721 -4.50485 0
-56.9474 -4.50936 0
-55.3196 -4.50808 0
-53.6918 -4.50555 0
-52.0635 -4.50724 0
-50.4367 -4.50465 0
-48.8097 -4.50546 0
-47.1853 -4.50274 0
-45.5569 -4.50373 0
-43.9291 -4.50557 0
-42.303 -4.5103 0
-40.675 -4.50652 0
-39.048 -4.50313 0
-37.4209 -4.50248 0
-35.7943 -4.50592 0
-34.1673 -4.5054 0
-32.5399 -4.50812 0
-30.9113 -4.50274 0
-29.2844 -4.50511 0
-27.6565 -4.50507 0
-26.0284 -4.5053 0
-24.402 -4.50544 0
-22.7779 -4.50394 0
-21.1491 -4.50303 0
-19.5215 -4.50273 0
-17.8934 -4.50185 0
-16.2693 -4.5028 0
-14.6428 -4.50308 0
-13.0154 -4.50495 0
-11.3865 -4.50384 0
-9.76222 -4.50612 0
-8.1323 -4.50501 0
-6.50865 -4.50345 0
-4.88125 -4.50732 0
-3.2538 -4.5034 0
-1.62701 -4.50629 0
0 -4.50379 0
-1098.11 64.6489 0
-1098.14 57.7297 0
-1098.15 51.0247 0
-1098.12 44.6294 0
-1098.09 38.5696 0
-1098.1 32.779 0
-1098.1 27.198 0
-1098.03 21.8944 0
-1097.91 16.9515 0
-1097.76 12.3976 0
-1097.6 8.23106 0
-1097.42 4.44487 0
-1097.2 1.02879 0
-1096.96 -2.03272 0
-1096.68 -4.75889 0
-1096.36 -7.17295 0
-1096 -9.29936 0
-1095.59 -11.163 0
-1095.12 -12.7868 0
-1094.61 -14.1937 0
-1094.05 -15.4028 0
-1093.44 -16.4333 0
-1092.78 -17.3019 0
-1092.07 -18.024 0
-1091.32 -18.6126 0
-1090.53 -19.0808 0
-1089.7 -19.4394 0
-1088.83 -19.6977 0
-1087.92 -19.8649 0
-1086.98 -19.9479 0
-1086 -19.9541 0
-1085 -19.8894 0
-1083.96 -19.7601 0
-1082.89 -19.5714 0
-1081.8 -19.3278 0
-1080.68 -19.0336 0
-1079.52 -18.6933 0
-1078.35 -18.3104 0
-1077.14 -17.8888 0
-1075.91 -17.4326 0
-1074.66 -16.9449 0
-1073.37 -16.429 0
-1072.07 -15.8886 0
-1070.74 -15.3263 0
-1069.39 -14.7462 0
-1068.02 -14.1505 0
-1066.62 -13.5423 0
-1065.2 -12.9238 0
-1063.76 -12.298 0
-1062.31 -11.6671 0
-1060.83 -11.033 0
-1059.33 -10.3986 0
-1057.82 -9.76602 0
-1056.29 -9.1368 0
-1054.74 -8.5133 0
-1053.18 -7.89699 0
-1051.6 -7.28897 0
-1050.01 -6.69169 0
-1048.41 -6.10545 0
-1046.79 -5.53213 0
-1045.16 -4.97318 0
-1043.52 -4.42886 0
-1041.87 -3.90037 0
-1040.21 -3.38859 0
-1038.54 -2.89435 0
-1036.86 -2.41848 0
-1035.18 -1.96106 0
-1033.49 -1.5229 0
-1031.79 -1.10529 0
-1030.08 -0.706838 0
-1028.37 -0.328623 0
-1026.65 0.0282146 0
-1024.93 0.365146 0
-1023.21 0.681483 0
-1021.48 0.976835 0
-1019.75 1.25186 0
-1018.01 1.50685 0
-1016.28 1.74082 0
-1014.54 1.95483 0
-1012.8 2.14883 0
-1011.06 2.32304 0
-1009.32 2.47779 0
-1007.58 2.61362 0
-1005.84 2.73032 0
-1004.1 2.82929 0
-1002.37 2.90987 0
-1000.63 2.97379 0
-998.892 3.02019 0
-997.157 3.04954 0
-995.425 3.06402 0
-993.695 3.06264 0
-991.967 3.04611 0
-990.241 3.01607 0
-988.518 2.97102 0
-986.798 2.91471 0
-985.08 2.84503 0
-983.366 2.7631 0
-981.655 2.66983 0
-979.947 2.56679 0
-978.242 2.45349 0
-976.54 2.33058 0
-974.842 2.19846 0
-973.147 2.05849 0
-971.456 1.91109 0
-969.768 1.7568 0
-968.085 1.5955 0
-966.404 1.42777 0
-964.727 1.2565 0
-963.053 1.07971 0
-961.383 0.897711 0
-959.717 0.713126 0
-958.054 0.524892 0
-956.394 0.334585 0
-954.738 0.141796 0
-953.085 -0.0530524 0
-951.435 -0.248095 0
-949.789 -0.444254 0
-948.145 -0.640013 0
-946.504 -0.836332 0
-944.866 -1.03178 0
-943.231 -1.22606 0
-941.6 -1.41943 0
-939.97 -1.61033 0
-938.342 -1.79943 0
-936.718 -1.98485 0
-935.096 -2.1688 0
-933.476 -2.34937 0
-931.857 -2.52636 0
-930.241 -2.70083 0
-928.627 -2.87095 0
-927.014 -3.03678 0
-925.403 -3.19713 0
-923.795 -3.35353 0
-922.188 -3.50482 0
-920.581 -3.65293 0
-918.977 -3.795 0
-917.374 -3.93213 0
-915.772 -4.064 0
-914.17 -4.19103 0
-912.57 -4.31194 0
-910.97 -4.42843 0
-909.371 -4.5384 0
-907.772 -4.64307 0
-906.175 -4.74158 0
-904.578 -4.83598 0
-902.981 -4.92355 0
-901.385 -5.00648 0
-899.789 -5.08361 0
-898.193 -5.15392 0
-896.597 -5.22018 0
-895.001 -5.28125 0
-893.405 -5.33521 0
-891.809 -5.38464 0
-890.213 -5.42885 0
-888.616 -5.46767 0
-887.02 -5.50186 0
-885.422 -5.5304 0
-883.824 -5.55479 0
-882.226 -5.57479 0
-880.628 -5.58929 0
-879.029 -5.59994 0
-877.428 -5.60635 0
-875.827 -5.60747 0
-874.226 -5.60501 0
-872.624 -5.59786 0
-871.022 -5.58737 0
-869.42 -5.57309 0
-867.815 -5.55455 0
-866.209 -5.53404 0
-864.605 -5.50844 0
-862.998 -5.47968 0
-861.39 -5.4486 0
-859.783 -5.41408 0
-858.175 -5.37738 0
-856.564 -5.33824 0
-854.953 -5.29685 0
-853.342 -5.25391 0
-851.729 -5.20765 0
-850.116 -5.15876 0
-848.501 -5.1094 0
-846.886 -5.05801 0
-845.27 -5.00475 0
-843.653 -4.94967 0
-842.035 -4.89432 0
-840.416 -4.83735 0
-838.796 -4.78002 0
-837.175 -4.72153 0
-835.553 -4.66227 0
-833.931 -4.60212 0
-832.308 -4.54286 0
-830.684 -4.48222 0
-829.06 -4.42136 0
-827.434 -4.36042 0
-825.807 -4.2987 0
-824.181 -4.23825 0
-822.553 -4.17807 0
-820.924 -4.11674 0
-819.296 -4.05644 0
-817.666 -3.99526 0
-816.037 -3.93638 0
-814.406 -3.87925 0
-812.774 -3.82262 0
-811.142 -3.76694 0
-809.51 -3.71035 0
-807.876 -3.65514 0
-806.242 -3.60254 0
-804.609 -3.55006 0
-802.974 -3.4984 0
-801.339 -3.44838 0
-799.703 -3.39971 0
-798.068 -3.3521 0
-796.431 -3.30657 0
-794.795 -3.2616 0
-793.158 -3.21905 0
-791.521 -3.17803 0
-789.884 -3.13739 0
-788.246 -3.09772 0
-786.61 -3.05967 0
-784.971 -3.02402 0
-783.333 -2.99119 0
-781.694 -2.95801 0
-780.055 -2.92833 0
-778.417 -2.899 0
-776.779 -2.87027 0
-775.14 -2.8453 0
-773.502 -2.8205 0
-771.864 -2.79647 0
-770.225 -2.77485 0
-768.587 -2.75487 0
-766.948 -2.73529 0
-765.309 -2.71858 0
-763.671 -2.70269 0
-762.032 -2.68981 0
-760.394 -2.67707 0
-758.755 -2.66609 0
-757.117 -2.65601 0
-755.479 -2.64807 0
-753.84 -2.64213 0
-752.202 -2.63452 0
-750.564 -2.63126 0
-748.927 -2.62904 0
-747.291 -2.62648 0
-745.653 -2.62539 0
-744.016 -2.62717 0
-742.38 -2.62969 0
-740.744 -2.63294 0
-739.107 -2.63689 0
-737.471 -2.64045 0
-735.835 -2.6458 0
-734.2 -2.65345 0
-732.564 -2.66078 0
-730.928 -2.66983 0
-729.294 -2.67897 0
-727.659 -2.69025 0
-726.025 -2.70198 0
-724.391 -2.7151 0
-722.756 -2.72806 0
-721.123 -2.74132 0
-719.49 -2.75551 0
-717.856 -2.7698 0
-716.224 -2.7847 0
-714.592 -2.79967 0
-712.96 -2.81596 0
-711.328 -2.83161 0
-709.696 -2.84902 0
-708.063 -2.8657 0
-706.433 -2.88304 0
-704.802 -2.89978 0
-703.171 -2.91729 0
-701.54 -2.93688 0
-699.909 -2.95294 0
-698.278 -2.97168 0
-696.649 -2.98959 0
-695.02 -3.00789 0
-693.391 -3.02644 0
-691.761 -3.04507 0
-690.133 -3.06282 0
-688.503 -3.08226 0
-686.874 -3.10016 0
-685.246 -3.11814 0
-683.616 -3.1351 0
-681.988 -3.15217 0
-680.36 -3.16955 0
-678.732 -3.18761 0
-677.104 -3.20465 0
-675.478 -3.22112 0
-673.849 -3.23883 0
-672.223 -3.25569 0
-670.595 -3.26994 0
-668.968 -3.28729 0
-667.34 -3.30154 0
-665.714 -3.31722 0
-664.088 -3.33191 0
-662.461 -3.34586 0
-660.835 -3.35946 0
-659.209 -3.3714 0
-657.583 -3.38473 0
-655.958 -3.39816 0
-654.332 -3.40929 0
-652.706 -3.41947 0
-651.081 -3.43236 0
-649.455 -3.4424 0
-647.829 -3.45272 0
-646.204 -3.46134 0
-644.577 -3.46954 0
-642.951 -3.47677 0
-641.326 -3.48487 0
-639.701 -3.49289 0
-638.075 -3.49993 0
-636.45 -3.50653 0
-634.824 -3.51354 0
-633.198 -3.51815 0
-631.574 -3.52406 0
-629.947 -3.52931 0
-628.322 -3.53366 0
-626.696 -3.53872 0
-625.07 -3.54089 0
-623.446 -3.54226 0
-621.819 -3.54571 0
-620.194 -3.54774 0
-618.568 -3.54848 0
-616.943 -3.54687 0
-615.317 -3.54857 0
-613.692 -3.54912 0
-612.065 -3.5463 0
-610.438 -3.54576 0
-608.813 -3.54594 0
-607.187 -3.54511 0
-605.562 -3.54348 0
-603.935 -3.53955 0
-602.308 -3.53737 0
-600.682 -3.53496 0
-599.056 -3.53098 0
-597.43 -3.52875 0
-595.804 -3.52475 0
-594.177 -3.52021 0
-592.552 -3.51568 0
-590.925 -3.50944 0
-589.298 -3.50425 0
-587.671 -3.49825 0
-586.045 -3.49273 0
-584.419 -3.4863 0
-582.793 -3.48159 0
-581.165 -3.47543 0
-579.539 -3.46796 0
-577.91 -3.4626 0
-576.284 -3.45425 0
-574.657 -3.44728 0
-573.03 -3.44161 0
-571.402 -3.43566 0
-569.774 -3.42879 0
-568.145 -3.42071 0
-566.518 -3.41269 0
-564.889 -3.40333 0
-563.262 -3.3963 0
-561.634 -3.38792 0
-560.006 -3.37763 0
-558.377 -3.36941 0
-556.75 -3.3621 0
-555.122 -3.35391 0
-553.494 -3.34759 0
-551.865 -3.33736 0
-550.238 -3.33161 0
-548.608 -3.32312 0
-546.98 -3.31475 0
-545.352 -3.30666 0
-543.724 -3.29862 0
-542.095 -3.28988 0
-540.464 -3.28106 0
-538.836 -3.27575 0
-537.207 -3.26687 0
-535.578 -3.25844 0
-533.95 -3.25012 0
-532.32 -3.24359 0
-530.692 -3.23768 0
-529.063 -3.22913 0
-527.434 -3.22126 0
-525.805 -3.21451 0
-524.175 -3.20484 0
-522.546 -3.19923 0
-520.918 -3.19273 0
-519.289 -3.18615 0
-517.659 -3.18066 0
-516.031 -3.17455 0
-514.403 -3.16693 0
-512.773 -3.15918 0
-511.142 -3.15332 0
-509.512 -3.14696 0
-507.883 -3.14154 0
-506.253 -3.13728 0
-504.624 -3.13004 0
-502.994 -3.12616 0
-501.366 -3.11973 0
-499.737 -3.11543 0
-498.108 -3.109 0
-496.478 -3.10609 0
-494.849 -3.09805 0
-493.221 -3.09433 0
-491.592 -3.09005 0
-489.962 -3.08585 0
-488.333 -3.08257 0
-486.702 -3.07943 0
-485.073 -3.07474 0
-483.445 -3.07175 0
-481.814 -3.0665 0
-480.185 -3.06064 0
-478.555 -3.05787 0
-476.927 -3.05494 0
-475.298 -3.05251 0
-473.668 -3.05025 0
-472.038 -3.0477 0
-470.41 -3.04541 0
-468.78 -3.04217 0
-467.151 -3.03916 0
-465.522 -3.03631 0
-463.892 -3.03586 0
-462.262 -3.03445 0
-460.63 -3.03146 0
-459.001 -3.03027 0
-457.371 -3.02918 0
-455.742 -3.02733 0
-454.113 -3.02657 0
-452.485 -3.02744 0
-450.857 -3.02561 0
-449.228 -3.02511 0
-447.599 -3.02411 0
-445.97 -3.02323 0
-444.342 -3.02275 0
-442.713 -3.02372 0
-441.086 -3.02176 0
-439.458 -3.02082 0
-437.828 -3.02028 0
-436.199 -3.02218 0
-434.57 -3.02417 0
-432.94 -3.02306 0
-431.312 -3.02331 0
-429.684 -3.02481 0
-428.054 -3.0222 0
-426.424 -3.0238 0
-424.796 -3.02422 0
-423.167 -3.02498 0
-421.539 -3.0245 0
-419.912 -3.02301 0
-418.283 -3.02349 0
-416.655 -3.02462 0
-415.026 -3.02611 0
-413.397 -3.02589 0
-411.769 -3.02715 0
-410.141 -3.02858 0
-408.512 -3.03068 0
-406.884 -3.03153 0
-405.256 -3.03097 0
-403.628 -3.02906 0
-402 -3.03026 0
-400.372 -3.03147 0
-398.742 -3.03266 0
-397.113 -3.0336 0
-395.485 -3.03378 0
-393.856 -3.03452 0
-392.229 -3.03499 0
-390.601 -3.03473 0
-388.973 -3.03546 0
-387.346 -3.03566 0
-385.719 -3.03599 0
-384.089 -3.03571 0
-382.46 -3.03524 0
-380.831 -3.03701 0
-379.205 -3.03646 0
-377.577 -3.03824 0
-375.948 -3.04171 0
-374.32 -3.0413 0
-372.692 -3.04067 0
-371.066 -3.04458 0
-369.437 -3.04385 0
-367.807 -3.04493 0
-366.18 -3.04512 0
-364.553 -3.04604 0
-362.926 -3.04354 0
-361.298 -3.04301 0
-359.669 -3.04343 0
-358.043 -3.0445 0
-356.413 -3.04481 0
-354.787 -3.04393 0
-353.16 -3.04337 0
-351.532 -3.04569 0
-349.903 -3.04313 0
-348.276 -3.0443 0
-346.65 -3.04209 0
-345.021 -3.04506 0
-343.391 -3.04381 0
-341.765 -3.04242 0
-340.137 -3.04174 0
-338.509 -3.04264 0
-336.882 -3.04047 0
-335.254 -3.04221 0
-333.627 -3.04258 0
-331.998 -3.04442 0
-330.372 -3.04115 0
-328.743 -3.03939 0
-327.115 -3.03734 0
-325.488 -3.03809 0
-323.858 -3.0343 0
-322.231 -3.03341 0
-320.603 -3.03155 0
-318.976 -3.03044 0
-317.349 -3.03382 0
-315.722 -3.0326 0
-314.095 -3.03387 0
-312.466 -3.03323 0
-310.838 -3.03159 0
-309.211 -3.02854 0
-307.585 -3.02496 0
-305.957 -3.02441 0
-304.33 -3.02185 0
-302.703 -3.02202 0
-301.074 -3.02193 0
-299.446 -3.02072 0
-297.816 -3.01891 0
-296.187 -3.01883 0
-294.561 -3.01832 0
-292.932 -3.01481 0
-291.304 -3.01361 0
-289.679 -3.01522 0
-288.051 -3.01337 0
-286.423 -3.01106 0
-284.795 -3.011 0
-283.168 -3.00983 0
-281.54 -3.0058 0
-279.913 -3.00357 0
-278.285 -3.00239 0
-276.656 -3.00167 0
-275.03 -2.99989 0
-273.401 -2.99975 0
-271.773 -2.99738 0
-270.147 -2.99335 0
-268.519 -2.99162 0
-266.89 -2.99121 0
-265.262 -2.99144 0
-263.635 -2.9898 0
-262.007 -2.98501 0
-260.378 -2.98262 0
-258.75 -2.98109 0
-257.124 -2.97859 0
-255.497 -2.97717 0
-253.869 -2.9733 0
-252.241 -2.97225 0
-250.615 -2.96861 0
-248.987 -2.96971 0
-247.359 -2.96778 0
-245.731 -2.96282 0
-244.103 -2.96228 0
-242.477 -2.96199 0
-240.848 -2.96007 0
-239.22 -2.9607 0
-237.593 -2.95898 0
-235.965 -2.95727 0
-234.337 -2.95603 0
-232.709 -2.95491 0
-231.083 -2.95419 0
-229.455 -2.95069 0
-227.825 -2.94692 0
-226.2 -2.94912 0
-224.571 -2.94547 0
-222.944 -2.94036 0
-221.316 -2.93985 0
-219.689 -2.93908 0
-218.061 -2.94116 0
-216.434 -2.93813 0
-214.805 -2.93416 0
-213.179 -2.93288 0
-211.551 -2.93124 0
-209.922 -2.92874 0
-208.292 -2.92684 0
-206.664 -2.92592 0
-205.037 -2.92314 0
-203.409 -2.92383 0
-201.779 -2.9237 0
-200.152 -2.9212 0
-198.526 -2.9225 0
-196.898 -2.91766 0
-195.268 -2.91666 0
-193.639 -2.91545 0
-192.013 -2.91507 0
-190.384 -2.91635 0
-188.757 -2.91429 0
-187.131 -2.91457 0
-185.502 -2.9131 0
-183.874 -2.91091 0
-182.248 -2.9126 0
-180.622 -2.90913 0
-178.995 -2.91087 0
-177.367 -2.91136 0
-175.74 -2.90732 0
-174.114 -2.90605 0
-172.484 -2.90488 0
-170.855 -2.90198 0
-169.229 -2.90179 0
-167.601 -2.90318 0
-165.973 -2.90001 0
-164.344 -2.89847 0
-162.717 -2.89816 0
-161.089 -2.90208 0
-159.461 -2.89927 0
-157.833 -2.89803 0
-156.207 -2.89836 0
-154.579 -2.89683 0
-152.953 -2.89582 0
-151.324 -2.89544 0
-149.697 -2.89365 0
-148.073 -2.89364 0
-146.445 -2.89162 0
-144.816 -2.89062 0
-143.188 -2.89123 0
-141.561 -2.8937 0
-139.933 -2.89202 0
-138.307 -2.89191 0
-136.676 -2.89621 0
-135.05 -2.89379 0
-133.422 -2.89126 0
-131.794 -2.89088 0
-130.166 -2.89072 0
-128.539 -2.88946 0
-126.913 -2.8883 0
-125.286 -2.88749 0
-123.66 -2.88748 0
-122.033 -2.88828 0
-120.403 -2.8881 0
-118.776 -2.88957 0
-117.148 -2.8885 0
-115.521 -2.88882 0
-113.894 -2.88984 0
-112.266 -2.88908 0
-110.637 -2.89319 0
-109.009 -2.88988 0
-107.383 -2.8876 0
-105.756 -2.88611 0
-104.131 -2.88716 0
-102.504 -2.88994 0
-100.876 -2.88976 0
-99.2465 -2.88852 0
-97.6181 -2.88931 0
-95.9913 -2.88871 0
-94.364 -2.8887 0
-92.7393 -2.89088 0
-91.1104 -2.8897 0
-89.4847 -2.89292 0
-87.8561 -2.89224 0
-86.2314 -2.8901 0
-84.6016 -2.89306 0
-82.9761 -2.89252 0
-81.3489 -2.89079 0
-79.7199 -2.89269 0
-78.0924 -2.8915 0
-76.4655 -2.89211 0
-74.8401 -2.88951 0
-73.2134 -2.8903 0
-71.5856 -2.89138 0
-69.9604 -2.89391 0
-68.3338 -2.89235 0
-66.7037 -2.89371 0
-65.0772 -2.89027 0
-63.452 -2.89446 0
-61.8239 -2.89556 0
-60.1973 -2.89451 0
-58.5741 -2.89538 0
-56.9489 -2.8958 0
-55.32 -2.89386 0
-53.6914 -2.8951 0
-52.0625 -2.89368 0
-50.4366 -2.89116 0
-48.8106 -2.89095 0
-47.1834 -2.88854 0
-45.5593 -2.88958 0
-43.9318 -2.89311 0
-42.3036 -2.89346 0
-40.6738 -2.89337 0
-39.0463 -2.88954 0
-37.4218 -2.88954 0
-35.7927 -2.89218 0
-34.165 -2.8916 0
-32.5399 -2.89163 0
-30.9122 -2.88905 0
-29.2864 -2.88847 0
-27.6572 -2.88928 0
-26.0308 -2.89153 0
-24.4033 -2.89173 0
-22.7769 -2.89027 0
-21.1491 -2.89113 0
-19.5207 -2.88833 0
-17.8934 -2.88942 0
-16.265 -2.8903 0
-14.6419 -2.88926 0
-13.0132 -2.89197 0
-11.3858 -2.89223 0
-9.7595 -2.892 0
-8.1345 -2.88871 0
-6.50642 -2.89037 0
-4.87944 -2.89088 0
-3.25311 -2.89047 0
-1.62666 -2.8921 0
0 -2.89058 0
-1105.32 65.2395 0
-1104.94 58.1251 0
-1104.69 51.4443 0
-1104.41 45.0584 0
-1104.12 38.9533 0
-1103.83 33.1232 0
-1103.53 27.5785 0
-1103.16 22.3305 0
-1102.72 17.4132 0
-1102.23 12.866 0
-1101.71 8.70298 0
-1101.17 4.92177 0
-1100.6 1.51386 0
-1100.02 -1.53554 0
-1099.42 -4.24493 0
-1098.79 -6.63742 0
-1098.15 -8.73769 0
-1097.47 -10.5713 0
-1096.78 -12.1627 0
-1096.05 -13.5345 0
-1095.29 -14.7075 0
-1094.5 -15.7016 0
-1093.67 -16.5344 0
-1092.82 -17.2208 0
-1091.94 -17.7753 0
-1091.02 -18.2101 0
-1090.08 -18.5358 0
-1089.11 -18.7636 0
-1088.11 -18.9003 0
-1087.09 -18.954 0
-1086.04 -18.932 0
-1084.96 -18.8399 0
-1083.86 -18.684 0
-1082.73 -18.4688 0
-1081.58 -18.1995 0
-1080.41 -17.8798 0
-1079.21 -17.5142 0
-1077.99 -17.107 0
-1076.75 -16.6612 0
-1075.49 -16.1815 0
-1074.2 -15.6705 0
-1072.89 -15.132 0
-1071.56 -14.5692 0
-1070.21 -13.9852 0
-1068.84 -13.3832 0
-1067.45 -12.7673 0
-1066.05 -12.1386 0
-1064.62 -11.5009 0
-1063.17 -10.8557 0
-1061.71 -10.2066 0
-1060.23 -9.55516 0
-1058.73 -8.90385 0
-1057.22 -8.25518 0
-1055.7 -7.61048 0
-1054.15 -6.97206 0
-1052.6 -6.34153 0
-1051.03 -5.72025 0
-1049.45 -5.10964 0
-1047.86 -4.51124 0
-1046.25 -3.92681 0
-1044.64 -3.35639 0
-1043.01 -2.80219 0
-1041.37 -2.26426 0
-1039.73 -1.7434 0
-1038.08 -1.24062 0
-1036.42 -0.757368 0
-1034.75 -0.293005 0
-1033.07 0.151798 0
-1031.39 0.575352 0
-1029.71 0.979876 0
-1028.01 1.36264 0
-1026.32 1.72422 0
-1024.61 2.06501 0
-1022.91 2.38465 0
-1021.2 2.68319 0
-1019.49 2.96044 0
-1017.78 3.21789 0
-1016.06 3.45427 0
-1014.34 3.66928 0
-1012.62 3.86391 0
-1010.9 4.0387 0
-1009.18 4.19446 0
-1007.46 4.33003 0
-1005.74 4.44649 0
-1004.01 4.5444 0
-1002.29 4.62511 0
-1000.57 4.68735 0
-998.852 4.73251 0
-997.133 4.7609 0
-995.416 4.7733 0
-993.7 4.76928 0
-991.987 4.75171 0
-990.275 4.71869 0
-988.564 4.67192 0
-986.856 4.61222 0
-985.151 4.54003 0
-983.448 4.45566 0
-981.747 4.35964 0
-980.049 4.25389 0
-978.354 4.13703 0
-976.661 4.01183 0
-974.971 3.87653 0
-973.284 3.73287 0