<?xml version="1.0"?>
<VTKFile type="StructuredGrid"  version="0.1" byte_order="LittleEndian" compressor="vtkZLibDataCompressor">
  <StructuredGrid WholeExtent="0 700 0 30 0 0">
    <Piece Extent="0 700 0 30 0 0">
      <PointData Vectors="Velocity">
        <DataArray type="Float32" Name="Velocity" NumberOfComponents="3" format="ascii">
-1090.62 61.9207 0
-1090.81 55.1392 0
-1091.07 48.5399 0
-1091.36 42.2432 0
-1091.62 36.2823 0
-1091.83 30.5844 0
-1092.03 25.0922 0
-1092.28 19.8787 0
-1092.54 15.028 0
-1092.78 10.5638 0
-1092.99 6.48268 0
-1093.18 2.77578 0
-1093.32 -0.569604 0
-1093.41 -3.56946 0
-1093.45 -6.24395 0
-1093.43 -8.61545 0
-1093.33 -10.7065 0
-1093.17 -12.5404 0
-1092.93 -14.1387 0
-1092.62 -15.5238 0
-1092.24 -16.7129 0
-1091.79 -17.725 0
-1091.28 -18.5765 0
-1090.7 -19.2819 0
-1090.07 -19.8558 0
-1089.38 -20.3091 0
-1088.65 -20.6535 0
-1087.86 -20.8993 0
-1087.03 -21.0543 0
-1086.16 -21.1265 0
-1085.24 -21.1238 0
-1084.29 -21.052 0
-1083.31 -20.9172 0
-1082.28 -20.7243 0
-1081.23 -20.4792 0
-1080.14 -20.1857 0
-1079.02 -19.8482 0
-1077.86 -19.4706 0
-1076.68 -19.0561 0
-1075.47 -18.6091 0
-1074.23 -18.1327 0
-1072.96 -17.6297 0
-1071.67 -17.1042 0
-1070.34 -16.5588 0
-1069 -15.9976 0
-1067.62 -15.4217 0
-1066.23 -14.8339 0
-1064.81 -14.2384 0
-1063.36 -13.6371 0
-1061.9 -13.0319 0
-1060.41 -12.4246 0
-1058.91 -11.8181 0
-1057.38 -11.2139 0
-1055.84 -10.6141 0
-1054.28 -10.02 0
-1052.7 -9.43437 0
-1051.1 -8.85819 0
-1049.49 -8.29189 0
-1047.87 -7.73823 0
-1046.24 -7.1966 0
-1044.59 -6.66946 0
-1042.93 -6.15703 0
-1041.26 -5.66189 0
-1039.58 -5.18246 0
-1037.89 -4.72058 0
-1036.19 -4.27578 0
-1034.48 -3.85026 0
-1032.77 -3.4447 0
-1031.04 -3.05814 0
-1029.32 -2.69054 0
-1027.59 -2.34272 0
-1025.85 -2.01593 0
-1024.11 -1.70806 0
-1022.37 -1.42147 0
-1020.62 -1.15357 0
-1018.87 -0.906245 0
-1017.12 -0.678986 0
-1015.36 -0.470266 0
-1013.61 -0.281719 0
-1011.86 -0.11222 0
-1010.1 0.037316 0
-1008.35 0.168857 0
-1006.59 0.282473 0
-1004.84 0.378087 0
-1003.09 0.455421 0
-1001.34 0.517252 0
-999.59 0.56167 0
-997.844 0.591605 0
-996.101 0.604895 0
-994.359 0.603845 0
-992.62 0.588006 0
-990.885 0.557071 0
-989.153 0.515551 0
-987.424 0.460214 0
-985.699 0.393141 0
-983.977 0.314297 0
-982.259 0.225446 0
-980.546 0.125195 0
-978.835 0.016117 0
-977.129 -0.102359 0
-975.427 -0.229165 0
-973.729 -0.36436 0
-972.035 -0.505011 0
-970.344 -0.654141 0
-968.659 -0.807981 0
-966.977 -0.96925 0
-965.3 -1.13428 0
-963.626 -1.30335 0
-961.956 -1.47696 0
-960.291 -1.65365 0
-958.629 -1.83344 0
-956.972 -2.01462 0
-955.318 -2.19817 0
-953.667 -2.38246 0
-952.02 -2.56832 0
-950.377 -2.75401 0
-948.737 -2.94035 0
-947.101 -3.12549 0
-945.467 -3.30918 0
-943.838 -3.49213 0
-942.209 -3.67436 0
-940.585 -3.85226 0
-938.964 -4.02968 0
-937.345 -4.20269 0
-935.728 -4.37457 0
-934.115 -4.54276 0
-932.504 -4.70854 0
-930.895 -4.8696 0
-929.287 -5.02545 0
-927.681 -5.17877 0
-926.077 -5.32799 0
-924.475 -5.47227 0
-922.876 -5.6116 0
-921.277 -5.74405 0
-919.68 -5.87481 0
-918.083 -5.99905 0
-916.488 -6.1185 0
-914.893 -6.23283 0
-913.299 -6.34068 0
-911.707 -6.44396 0
-910.116 -6.54173 0
-908.524 -6.63444 0
-906.933 -6.72122 0
-905.342 -6.80293 0
-903.753 -6.87924 0
-902.163 -6.94968 0
-900.573 -7.01483 0
-898.983 -7.07506 0
-897.393 -7.12985 0
-895.803 -7.1787 0
-894.212 -7.22344 0
-892.623 -7.26233 0
-891.032 -7.29683 0
-889.44 -7.32645 0
-887.848 -7.34984 0
-886.256 -7.36926 0
-884.664 -7.3841 0
-883.069 -7.394 0
-881.476 -7.40008 0
-879.88 -7.40201 0
-878.284 -7.39886 0
-876.688 -7.39233 0
-875.09 -7.38078 0
-873.491 -7.3679 0
-871.893 -7.35031 0
-870.293 -7.32935 0
-868.693 -7.30501 0
-867.09 -7.27657 0
-865.486 -7.24667 0
-863.883 -7.213 0
-862.278 -7.17684 0
-860.673 -7.13953 0
-859.066 -7.09911 0
-857.459 -7.05588 0
-855.848 -7.00911 0
-854.239 -6.96192 0
-852.628 -6.91262 0
-851.016 -6.8615 0
-849.401 -6.81038 0
-847.787 -6.75695 0
-846.171 -6.70171 0
-844.555 -6.64549 0
-842.938 -6.58772 0
-841.32 -6.52974 0
-839.7 -6.47156 0
-838.08 -6.41277 0
-836.459 -6.35234 0
-834.838 -6.29228 0
-833.215 -6.23137 0
-831.591 -6.17156 0
-829.965 -6.11041 0
-828.339 -6.05137 0
-826.713 -5.99114 0
-825.085 -5.93311 0
-823.458 -5.8743 0
-821.829 -5.81517 0
-820.2 -5.75643 0
-818.569 -5.6981 0
-816.938 -5.64124 0
-815.306 -5.5859 0
-813.674 -5.53193 0
-812.041 -5.47804 0
-810.409 -5.42558 0
-808.775 -5.37359 0
-807.141 -5.32305 0
-805.507 -5.27334 0
-803.871 -5.22491 0
-802.235 -5.17867 0
-800.599 -5.13429 0
-798.962 -5.09157 0
-797.324 -5.05008 0
-795.688 -5.00911 0
-794.052 -4.96985 0
-792.414 -4.93139 0
-790.776 -4.8946 0
-789.138 -4.85968 0
-787.5 -4.82688 0
-785.863 -4.79617 0
-784.224 -4.76671 0
-782.586 -4.73713 0
-780.948 -4.70969 0
-779.308 -4.68554 0
-777.669 -4.66069 0
-776.031 -4.63942 0
-774.393 -4.61853 0
-772.753 -4.59978 0
-771.115 -4.58176 0
-769.476 -4.56446 0
-767.839 -4.55025 0
-766.2 -4.53825 0
-764.56 -4.52699 0
-762.923 -4.51638 0
-761.284 -4.5078 0
-759.647 -4.49988 0
-758.011 -4.49514 0
-756.373 -4.48955 0
-754.736 -4.48699 0
-753.1 -4.4844 0
-751.464 -4.48113 0
-749.827 -4.48301 0
-748.189 -4.48261 0
-746.553 -4.48652 0
-744.917 -4.48879 0
-743.282 -4.49503 0
-741.647 -4.49901 0
-740.011 -4.50527 0
-738.376 -4.51318 0
-736.741 -4.521 0
-735.106 -4.53049 0
-733.472 -4.54085 0
-731.838 -4.55227 0
-730.207 -4.56376 0
-728.573 -4.57532 0
-726.941 -4.58802 0
-725.309 -4.60132 0
-723.677 -4.61506 0
-722.044 -4.62956 0
-720.413 -4.64427 0
-718.781 -4.66006 0
-717.149 -4.67732 0
-715.519 -4.69299 0
-713.888 -4.70774 0
-712.258 -4.72437 0
-710.628 -4.74071 0
-708.999 -4.75942 0
-707.37 -4.77538 0
-705.74 -4.79398 0
-704.112 -4.81123 0
-702.483 -4.82907 0
-700.854 -4.84569 0
-699.226 -4.86374 0
-697.598 -4.88232 0
-695.971 -4.89861 0
-694.344 -4.91611 0
-692.716 -4.93326 0
-691.091 -4.95071 0
-689.463 -4.96983 0
-687.837 -4.9866 0
-686.211 -5.00369 0
-684.584 -5.02041 0
-682.958 -5.03885 0
-681.333 -5.05384 0
-679.707 -5.06929 0
-678.081 -5.08569 0
-676.454 -5.10045 0
-674.829 -5.11802 0
-673.203 -5.13151 0
-671.58 -5.14802 0
-669.956 -5.16139 0
-668.332 -5.17511 0
-666.707 -5.18854 0
-665.084 -5.20272 0
-663.46 -5.21392 0
-661.836 -5.22658 0
-660.211 -5.23574 0
-658.587 -5.24996 0
-656.962 -5.25929 0
-655.338 -5.27076 0
-653.716 -5.28004 0
-652.092 -5.29023 0
-650.468 -5.29921 0
-648.845 -5.30721 0
-647.22 -5.31652 0
-645.596 -5.32427 0
-643.973 -5.33278 0
-642.35 -5.33829 0
-640.728 -5.34578 0
-639.102 -5.35055 0
-637.48 -5.3545 0
-635.856 -5.35962 0
-634.232 -5.3637 0
-632.609 -5.36793 0
-630.986 -5.37321 0
-629.361 -5.37528 0
-627.738 -5.37881 0
-626.115 -5.38013 0
-624.49 -5.38189 0
-622.866 -5.38386 0
-621.243 -5.386 0
-619.619 -5.38499 0
-617.996 -5.38493 0
-616.372 -5.38313 0
-614.747 -5.38242 0
-613.123 -5.38268 0
-611.498 -5.38192 0
-609.875 -5.3811 0
-608.252 -5.37914 0
-606.626 -5.37656 0
-605.002 -5.37261 0
-603.378 -5.37004 0
-601.754 -5.36706 0
-600.129 -5.36381 0
-598.504 -5.35955 0
-596.879 -5.35467 0
-595.254 -5.35095 0
-593.628 -5.34501 0
-592.003 -5.34116 0
-590.378 -5.33658 0
-588.752 -5.33177 0
-587.126 -5.32753 0
-585.5 -5.32127 0
-583.874 -5.31533 0
-582.25 -5.3095 0
-580.624 -5.30478 0
-578.999 -5.29824 0
-577.374 -5.29199 0
-575.746 -5.28515 0
-574.119 -5.27835 0
-572.492 -5.27264 0
-570.865 -5.26603 0
-569.238 -5.25995 0
-567.612 -5.25447 0
-565.986 -5.2475 0
-564.359 -5.24083 0
-562.733 -5.23316 0
-561.107 -5.22676 0
-559.48 -5.22066 0
-557.853 -5.2135 0
-556.226 -5.20766 0
-554.598 -5.20243 0
-552.971 -5.19461 0
-551.345 -5.18908 0
-549.716 -5.18325 0
-548.09 -5.17852 0
-546.464 -5.1709 0
-544.836 -5.16758 0
-543.208 -5.15938 0
-541.58 -5.15289 0
-539.952 -5.14767 0
-538.325 -5.14094 0
-536.696 -5.13537 0
-535.067 -5.12969 0
-533.441 -5.12362 0
-531.814 -5.11858 0
-530.185 -5.11478 0
-528.559 -5.11004 0
-526.931 -5.10453 0
-525.3 -5.10075 0
-523.672 -5.09547 0
-522.044 -5.09232 0
-520.417 -5.08699 0
-518.789 -5.08287 0
-517.16 -5.07859 0
-515.535 -5.07644 0
-513.909 -5.07238 0
-512.28 -5.06709 0
-510.649 -5.06271 0
-509.021 -5.05945 0
-507.393 -5.05476 0
-505.764 -5.05235 0
-504.133 -5.05117 0
-502.507 -5.04805 0
-500.88 -5.04411 0
-499.252 -5.0399 0
-497.623 -5.03955 0
-495.995 -5.03542 0
-494.368 -5.03575 0
-492.74 -5.03409 0
-491.111 -5.03304 0
-489.485 -5.03016 0
-487.855 -5.0272 0
-486.227 -5.02778 0
-484.597 -5.02777 0
-482.97 -5.02399 0
-481.341 -5.0262 0
-479.714 -5.02793 0
-478.086 -5.02678 0
-476.458 -5.0269 0
-474.83 -5.02679 0
-473.201 -5.02751 0
-471.576 -5.02687 0
-469.947 -5.02724 0
-468.319 -5.02953 0
-466.694 -5.0301 0
-465.065 -5.0316 0
-463.438 -5.03193 0
-461.81 -5.03205 0
-460.182 -5.03299 0
-458.555 -5.03337 0
-456.927 -5.03667 0
-455.3 -5.03866 0
-453.673 -5.03928 0
-452.045 -5.0414 0
-450.419 -5.04243 0
-448.79 -5.04752 0
-447.164 -5.0494 0
-445.537 -5.05058 0
-443.911 -5.05454 0
-442.283 -5.05751 0
-440.655 -5.05744 0
-439.028 -5.06309 0
-437.401 -5.06646 0
-435.773 -5.07009 0
-434.146 -5.07045 0
-432.519 -5.07176 0
-430.891 -5.07325 0
-429.263 -5.07791 0
-427.635 -5.08269 0
-426.01 -5.08525 0
-424.383 -5.08821 0
-422.756 -5.08804 0
-421.128 -5.09358 0
-419.502 -5.09788 0
-417.874 -5.10139 0
-416.246 -5.10619 0
-414.62 -5.10946 0
-412.995 -5.11367 0
-411.37 -5.11515 0
-409.742 -5.11822 0
-408.115 -5.12229 0
-406.488 -5.12455 0
-404.862 -5.12513 0
-403.235 -5.12813 0
-401.608 -5.13076 0
-399.982 -5.13385 0
-398.356 -5.13924 0
-396.728 -5.1433 0
-395.101 -5.14444 0
-393.474 -5.14622 0
-391.848 -5.14922 0
-390.222 -5.15107 0
-388.595 -5.1542 0
-386.966 -5.15706 0
-385.338 -5.15991 0
-383.714 -5.16266 0
-382.089 -5.16452 0
-380.463 -5.17034 0
-378.836 -5.17364 0
-377.21 -5.17709 0
-375.584 -5.17654 0
-373.955 -5.18083 0
-372.329 -5.18244 0
-370.705 -5.18502 0
-369.077 -5.18842 0
-367.452 -5.19095 0
-365.825 -5.19373 0
-364.2 -5.19842 0
-362.574 -5.20101 0
-360.947 -5.20254 0
-359.318 -5.20334 0
-357.692 -5.20559 0
-356.064 -5.20881 0
-354.437 -5.21203 0
-352.812 -5.21376 0
-351.187 -5.21701 0
-349.561 -5.21795 0
-347.935 -5.21978 0
-346.309 -5.22119 0
-344.683 -5.22235 0
-343.055 -5.22688 0
-341.429 -5.23022 0
-339.803 -5.23221 0
-338.176 -5.23394 0
-336.55 -5.23637 0
-334.927 -5.23721 0
-333.299 -5.23977 0
-331.673 -5.241 0
-330.046 -5.24659 0
-328.421 -5.24805 0
-326.794 -5.24457 0
-325.17 -5.24655 0
-323.545 -5.25287 0
-321.918 -5.2512 0
-320.291 -5.25408 0
-318.663 -5.25467 0
-317.036 -5.25816 0
-315.41 -5.26079 0
-313.784 -5.262 0
-312.16 -5.26319 0
-310.533 -5.26178 0
-308.907 -5.26457 0
-307.282 -5.26682 0
-305.657 -5.26791 0
-304.031 -5.27016 0
-302.404 -5.27247 0
-300.776 -5.27192 0
-299.15 -5.27543 0
-297.526 -5.27828 0
-295.9 -5.2774 0
-294.274 -5.27819 0
-292.646 -5.27895 0
-291.019 -5.28026 0
-289.394 -5.28204 0
-287.766 -5.2857 0
-286.142 -5.28604 0
-284.517 -5.28455 0
-282.889 -5.28693 0
-281.263 -5.28709 0
-279.639 -5.29122 0
-278.014 -5.29245 0
-276.386 -5.29454 0
-274.756 -5.29309 0
-273.132 -5.29606 0
-271.503 -5.29607 0
-269.878 -5.29363 0
-268.252 -5.29453 0
-266.623 -5.29405 0
-264.999 -5.29945 0
-263.373 -5.30042 0
-261.748 -5.30148 0
-260.12 -5.30273 0
-258.494 -5.3023 0
-256.87 -5.30374 0
-255.243 -5.30703 0
-253.617 -5.30343 0
-251.99 -5.30008 0
-250.366 -5.30322 0
-248.741 -5.30488 0
-247.114 -5.30207 0
-245.487 -5.30182 0
-243.862 -5.30539 0
-242.234 -5.3103 0
-240.609 -5.30793 0
-238.983 -5.31289 0
-237.357 -5.3154 0
-235.729 -5.31514 0
-234.105 -5.3153 0
-232.478 -5.31402 0
-230.852 -5.31487 0
-229.226 -5.31829 0
-227.598 -5.31605 0
-225.971 -5.31981 0
-224.344 -5.31893 0
-222.718 -5.32222 0
-221.093 -5.32054 0
-219.469 -5.32188 0
-217.84 -5.3231 0
-216.214 -5.32336 0
-214.586 -5.32312 0
-212.96 -5.32547 0
-211.335 -5.32724 0
-209.71 -5.32958 0
-208.082 -5.33156 0
-206.455 -5.33586 0
-204.826 -5.33553 0
-203.199 -5.33949 0
-201.575 -5.33807 0
-199.951 -5.33859 0
-198.328 -5.34245 0
-196.7 -5.33808 0
-195.071 -5.34049 0
-193.448 -5.34011 0
-191.821 -5.34156 0
-190.196 -5.34413 0
-188.568 -5.3425 0
-186.942 -5.34942 0
-185.319 -5.34579 0
-183.693 -5.34748 0
-182.066 -5.35073 0
-180.442 -5.35092 0
-178.815 -5.34966 0
-177.187 -5.35109 0
-175.562 -5.35277 0
-173.934 -5.35452 0
-172.306 -5.35651 0
-170.683 -5.35809 0
-169.056 -5.35633 0
-167.431 -5.36008 0
-165.804 -5.3614 0
-164.179 -5.36105 0
-162.554 -5.3597 0
-160.927 -5.36149 0
-159.298 -5.36355 0
-157.675 -5.36926 0
-156.049 -5.36678 0
-154.423 -5.37185 0
-152.798 -5.37028 0
-151.172 -5.37456 0
-149.545 -5.37346 0
-147.922 -5.37863 0
-146.296 -5.37806 0
-144.67 -5.37858 0
-143.042 -5.38098 0
-141.417 -5.37971 0
-139.791 -5.38333 0
-138.164 -5.38354 0
-136.539 -5.38619 0
-134.912 -5.38694 0
-133.291 -5.38564 0
-131.662 -5.3902 0
-130.036 -5.38915 0
-128.409 -5.39076 0
-126.78 -5.39292 0
-125.154 -5.39341 0
-123.527 -5.39618 0
-121.905 -5.39844 0
-120.279 -5.40029 0
-118.653 -5.40284 0
-117.03 -5.40416 0
-115.404 -5.40373 0
-113.779 -5.40481 0
-112.154 -5.4109 0
-110.527 -5.40598 0
-108.899 -5.41101 0
-107.273 -5.41301 0
-105.649 -5.41432 0
-104.023 -5.4183 0
-102.396 -5.416 0
-100.772 -5.41599 0
-99.1461 -5.41998 0
-97.5205 -5.42291 0
-95.8958 -5.42327 0
-94.271 -5.42481 0
-92.6461 -5.42549 0
-91.0227 -5.42757 0
-89.399 -5.42999 0
-87.7732 -5.42672 0
-86.1451 -5.42878 0
-84.517 -5.42876 0
-82.8893 -5.43203 0
-81.2646 -5.43393 0
-79.6364 -5.43562 0
-78.0094 -5.43546 0
-76.3852 -5.43781 0
-74.7594 -5.44168 0
-73.134 -5.44139 0
-71.5104 -5.4404 0
-69.8857 -5.4422 0
-68.2583 -5.44142 0
-66.6346 -5.44069 0
-65.0082 -5.44173 0
-63.3856 -5.44091 0
-61.762 -5.44522 0
-60.1318 -5.44621 0
-58.5077 -5.4469 0
-56.883 -5.44619 0
-55.2588 -5.44592 0
-53.6347 -5.4471 0
-52.0101 -5.44819 0
-50.3824 -5.44996 0
-48.7586 -5.44878 0
-47.1311 -5.44685 0
-45.5064 -5.44894 0
-43.8817 -5.45189 0
-42.2573 -5.45174 0
-40.63 -5.4514 0
-39.0075 -5.45119 0
-37.3802 -5.44836 0
-35.7566 -5.44996 0
-34.1285 -5.44916 0
-32.5065 -5.4523 0
-30.8821 -5.45238 0
-29.2552 -5.45265 0
-27.6279 -5.45501 0
-26.0028 -5.45382 0
-24.3777 -5.4525 0
-22.7548 -5.45443 0
-21.1297 -5.4536 0
-19.5035 -5.45713 0
-17.8773 -5.45737 0
-16.2526 -5.4567 0
-14.6278 -5.45835 0
-13.0032 -5.45746 0
-11.3782 -5.45692 0
-9.75628 -5.45506 0
-8.12666 -5.45549 0
-6.49908 -5.45513 0
-4.87386 -5.45467 0
-3.25204 -5.45755 0
-1.62459 -5.45442 0
0 -5.45503 0
-1097.41 62.1522 0
-1097.44 55.3143 0
-1097.46 48.6916 0
-1097.44 42.3802 0
-1097.41 36.407 0
-1097.43 30.7019 0
-1097.43 25.2051 0
-1097.36 19.9873 0
-1097.24 15.1328 0
-1097.1 10.6678 0
-1096.94 6.59133 0
-1096.75 2.89589 0
-1096.54 -0.429616 0
-1096.3 -3.40046 0
-1096.02 -6.03765 0
-1095.69 -8.36478 0
-1095.32 -10.4063 0
-1094.91 -12.1866 0
-1094.44 -13.7302 0
-1093.92 -15.059 0
-1093.35 -16.1929 0
-1092.73 -17.1511 0
-1092.07 -17.9502 0
-1091.35 -18.6059 0
-1090.59 -19.1323 0
-1089.79 -19.5404 0
-1088.95 -19.8418 0
-1088.07 -20.0468 0
-1087.15 -20.1633 0
-1086.2 -20.1991 0
-1085.21 -20.1609 0
-1084.19 -20.0555 0
-1083.15 -19.8881 0
-1082.07 -19.6643 0
-1080.96 -19.3884 0
-1079.83 -19.0653 0
-1078.66 -18.699 0
-1077.47 -18.2929 0
-1076.26 -17.8508 0
-1075.01 -17.3767 0
-1073.75 -16.8739 0
-1072.45 -16.3452 0
-1071.14 -15.7944 0
-1069.8 -15.2246 0
-1068.44 -14.6388 0
-1067.05 -14.0399 0
-1065.64 -13.4299 0
-1064.22 -12.8127 0
-1062.77 -12.1904 0
-1061.3 -11.5649 0
-1059.81 -10.9385 0
-1058.31 -10.3132 0
-1056.79 -9.69147 0
-1055.25 -9.07457 0
-1053.7 -8.46472 0
-1052.13 -7.86341 0
-1050.54 -7.27255 0
-1048.94 -6.69318 0
-1047.33 -6.12653 0
-1045.71 -5.57299 0
-1044.08 -5.03425 0
-1042.43 -4.51203 0
-1040.78 -4.00626 0
-1039.11 -3.51786 0
-1037.44 -3.04768 0
-1035.76 -2.59521 0
-1034.07 -2.1622 0
-1032.38 -1.74992 0
-1030.68 -1.3576 0
-1028.97 -0.985041 0
-1027.26 -0.632689 0
-1025.54 -0.301107 0
-1023.82 0.00984214 0
-1022.09 0.300146 0
-1020.37 0.569896 0
-1018.64 0.819485 0
-1016.91 1.04845 0
-1015.17 1.25825 0
-1013.44 1.44746 0
-1011.7 1.61733 0
-1009.97 1.76712 0
-1008.23 1.89828 0
-1006.49 2.01184 0
-1004.76 2.10584 0
-1003.02 2.18234 0
-1001.29 2.24207 0
-999.556 2.2852 0
-997.826 2.31314 0
-996.097 2.32406 0
-994.37 2.32032 0
-992.645 2.30176 0
-990.923 2.26884 0
-989.203 2.22371 0
-987.487 2.16507 0
-985.773 2.09455 0
-984.062 2.01308 0
-982.355 1.91971 0
-980.651 1.8167 0
-978.95 1.70401 0
-977.253 1.58153 0
-975.558 1.4512 0
-973.867 1.31234 0
-972.18 1.16756 0
-970.496 1.01535 0
-968.815 0.856786 0
-967.139 0.692098 0
-965.466 0.523477 0
-963.796 0.350201 0
-962.13 0.1731 0
-960.468 -0.00724231 0
-958.808 -0.190179 0
-957.152 -0.375546 0
-955.5 -0.562371 0
-953.85 -0.750019 0
-952.204 -0.939003 0
-950.561 -1.12756 0
-948.921 -1.31715 0
-947.283 -1.50521 0
-945.648 -1.69197 0
-944.017 -1.87795 0
-942.388 -2.06212 0
-940.762 -2.24331 0
-939.137 -2.42257 0
-937.516 -2.59944 0
-935.897 -2.77331 0
-934.28 -2.9437 0
-932.665 -3.11082 0
-931.051 -3.27412 0
-929.44 -3.43234 0
-927.83 -3.58742 0
-926.222 -3.73753 0
-924.616 -3.88324 0
-923.01 -4.02398 0
-921.407 -4.15898 0
-919.804 -4.28958 0
-918.203 -4.41558 0
-916.602 -4.53594 0
-915.003 -4.65051 0
-913.405 -4.76028 0
-911.807 -4.8636 0
-910.209 -4.96182 0
-908.612 -5.0552 0
-907.016 -5.14207 0
-905.421 -5.22419 0
-903.825 -5.30113 0
-902.23 -5.37133 0
-900.635 -5.437 0
-899.039 -5.49692 0
-897.445 -5.55144 0
-895.849 -5.60069 0
-894.254 -5.6449 0
-892.658 -5.68351 0
-891.063 -5.71763 0
-889.466 -5.74649 0
-887.87 -5.76985 0
-886.272 -5.78856 0
-884.676 -5.80294 0
-883.078 -5.81186 0
-881.48 -5.81743 0
-879.879 -5.81799 0
-878.279 -5.8147 0
-876.679 -5.80716 0
-875.078 -5.7957 0
-873.476 -5.78157 0
-871.874 -5.76389 0
-870.27 -5.74184 0
-868.666 -5.7166 0
-867.061 -5.68711 0
-865.456 -5.65569 0
-863.849 -5.6218 0
-862.242 -5.58532 0
-860.634 -5.54635 0
-859.025 -5.50459 0
-857.414 -5.46006 0
-855.802 -5.41292 0
-854.191 -5.36514 0
-852.578 -5.31479 0
-850.964 -5.26211 0
-849.349 -5.21013 0
-847.733 -5.15509 0
-846.116 -5.10007 0
-844.499 -5.04286 0
-842.881 -4.98449 0
-841.262 -4.92502 0
-839.642 -4.86562 0
-838.021 -4.80646 0
-836.399 -4.74549 0
-834.777 -4.68411 0
-833.154 -4.6225 0
-831.53 -4.56115 0
-829.905 -4.50077 0
-828.28 -4.43964 0
-826.654 -4.37896 0
-825.027 -4.31973 0
-823.399 -4.26076 0
-821.771 -4.20103 0
-820.142 -4.14267 0
-818.512 -4.08248 0
-816.882 -4.02547 0
-815.251 -3.96906 0
-813.621 -3.91375 0
-811.989 -3.8602 0
-810.357 -3.8068 0
-808.724 -3.75486 0
-807.092 -3.70342 0
-805.458 -3.65359 0
-803.824 -3.60507 0
-802.19 -3.5586 0
-800.555 -3.51364 0
-798.92 -3.47039 0
-797.284 -3.42833 0
-795.649 -3.38773 0
-794.013 -3.34781 0
-792.377 -3.30934 0
-790.741 -3.27251 0
-789.105 -3.23694 0
-787.468 -3.20413 0
-785.831 -3.17309 0
-784.195 -3.14297 0
-782.558 -3.1143 0
-780.921 -3.08675 0
-779.284 -3.06113 0
-777.647 -3.03779 0
-776.01 -3.01639 0
-774.373 -2.99539 0
-772.736 -2.97704 0
-771.098 -2.95899 0
-769.461 -2.9423 0
-767.824 -2.92709 0
-766.187 -2.91476 0
-764.55 -2.90413 0
-762.914 -2.89308 0
-761.278 -2.8856 0
-759.642 -2.87821 0
-758.005 -2.87306 0
-756.37 -2.86753 0
-754.734 -2.86503 0
-753.097 -2.86223 0
-751.462 -2.86143 0
-749.826 -2.86098 0
-748.191 -2.86271 0
-746.556 -2.86563 0
-744.921 -2.86841 0
-743.287 -2.87349 0
-741.652 -2.87867 0
-740.018 -2.8856 0
-738.384 -2.89377 0
-736.749 -2.90185 0
-735.116 -2.91094 0
-733.482 -2.92234 0
-731.851 -2.93368 0
-730.217 -2.94528 0
-728.586 -2.95772 0
-726.954 -2.9707 0
-725.321 -2.98381 0
-723.689 -2.99815 0
-722.058 -3.0132 0
-720.427 -3.02788 0
-718.796 -3.04331 0
-717.165 -3.05974 0
-715.533 -3.07628 0
-713.904 -3.09252 0
-712.274 -3.10993 0
-710.645 -3.12626 0
-709.015 -3.14358 0
-707.385 -3.16125 0
-705.757 -3.17904 0
-704.129 -3.19685 0
-702.5 -3.21478 0
-700.871 -3.23188 0
-699.243 -3.25025 0
-697.616 -3.2692 0
-695.988 -3.28692 0
-694.36 -3.30365 0
-692.733 -3.322 0
-691.107 -3.33853 0
-689.479 -3.3573 0
-687.853 -3.37564 0
-686.227 -3.39226 0
-684.601 -3.40911 0
-682.976 -3.42663 0
-681.349 -3.44316 0
-679.723 -3.45883 0
-678.096 -3.47337 0
-676.471 -3.48974 0
-674.845 -3.50575 0
-673.219 -3.52177 0
-671.594 -3.53666 0
-669.969 -3.55131 0
-668.345 -3.56472 0
-666.721 -3.57883 0
-665.095 -3.59187 0
-663.471 -3.6038 0
-661.846 -3.61614 0
-660.222 -3.62698 0
-658.598 -3.63889 0
-656.973 -3.64932 0
-655.35 -3.66157 0
-653.726 -3.67203 0
-652.101 -3.68005 0
-650.477 -3.68923 0
-648.853 -3.69875 0
-647.229 -3.70638 0
-645.604 -3.71448 0
-643.981 -3.7231 0
-642.357 -3.72987 0
-640.733 -3.73658 0
-639.109 -3.74113 0
-637.483 -3.74591 0
-635.86 -3.75028 0
-634.237 -3.75521 0
-632.613 -3.75976 0
-630.988 -3.76337 0
-629.363 -3.7644 0
-627.74 -3.76867 0
-626.116 -3.77016 0
-624.492 -3.77193 0
-622.867 -3.77387 0
-621.243 -3.77497 0
-619.619 -3.77601 0
-617.995 -3.77468 0
-616.37 -3.77316 0
-614.746 -3.77352 0
-613.122 -3.77298 0
-611.499 -3.77166 0
-609.872 -3.77103 0
-608.248 -3.76922 0
-606.624 -3.76567 0
-605 -3.76167 0
-603.375 -3.75975 0
-601.75 -3.7569 0
-600.125 -3.75334 0
-598.5 -3.74895 0
-596.875 -3.74407 0
-595.249 -3.73937 0
-593.623 -3.7346 0
-591.998 -3.73062 0
-590.372 -3.72579 0
-588.747 -3.7209 0
-587.121 -3.71581 0
-585.494 -3.70958 0
-583.869 -3.70414 0
-582.243 -3.69773 0
-580.618 -3.69291 0
-578.991 -3.68727 0
-577.366 -3.68119 0
-575.739 -3.67193 0
-574.112 -3.66596 0
-572.486 -3.66098 0
-570.859 -3.65441 0
-569.232 -3.64889 0
-567.606 -3.64055 0
-565.979 -3.63493 0
-564.352 -3.62867 0
-562.726 -3.62138 0
-561.1 -3.61517 0
-559.474 -3.60891 0
-557.847 -3.60204 0
-556.22 -3.595 0
-554.592 -3.58946 0
-552.965 -3.58374 0
-551.338 -3.57634 0
-549.711 -3.57174 0
-548.084 -3.56507 0
-546.456 -3.55857 0
-544.829 -3.55274 0
-543.202 -3.54582 0
-541.575 -3.54026 0
-539.947 -3.53412 0
-538.319 -3.52784 0
-536.69 -3.52181 0
-535.063 -3.51691 0
-533.436 -3.51149 0
-531.808 -3.50657 0
-530.181 -3.50237 0
-528.553 -3.49732 0
-526.925 -3.49076 0
-525.298 -3.48623 0
-523.668 -3.48198 0
-522.039 -3.47906 0
-520.411 -3.47312 0
-518.784 -3.47045 0
-517.157 -3.46602 0
-515.53 -3.46306 0
-513.903 -3.45865 0
-512.274 -3.45323 0
-510.646 -3.4496 0
-509.018 -3.4476 0
-507.39 -3.44199 0
-505.762 -3.43924 0
-504.134 -3.43687 0
-502.505 -3.43536 0
-500.877 -3.43081 0
-499.25 -3.42717 0
-497.622 -3.42624 0
-495.995 -3.42328 0
-494.367 -3.42236 0
-492.738 -3.42043 0
-491.111 -3.41976 0
-489.482 -3.41744 0
-487.854 -3.4147 0
-486.225 -3.41382 0
-484.597 -3.41319 0
-482.97 -3.41249 0
-481.343 -3.41189 0
-479.715 -3.41356 0
-478.087 -3.41317 0
-476.458 -3.41178 0
-474.831 -3.41335 0
-473.203 -3.41422 0
-471.577 -3.41375 0
-469.949 -3.41451 0
-468.321 -3.41733 0
-466.694 -3.41637 0
-465.067 -3.41714 0
-463.44 -3.41851 0
-461.812 -3.41857 0
-460.185 -3.41967 0
-458.557 -3.42056 0
-456.929 -3.42264 0
-455.302 -3.42546 0
-453.675 -3.42621 0
-452.047 -3.42792 0
-450.42 -3.4299 0
-448.793 -3.43352 0
-447.165 -3.43722 0
-445.539 -3.43923 0
-443.912 -3.44206 0
-442.286 -3.44481 0
-440.659 -3.44569 0
-439.031 -3.44908 0
-437.404 -3.45311 0
-435.776 -3.45632 0
-434.149 -3.45687 0
-432.52 -3.45929 0
-430.893 -3.46148 0
-429.266 -3.46512 0
-427.639 -3.46954 0
-426.012 -3.47241 0
-424.383 -3.47551 0
-422.757 -3.4778 0
-421.132 -3.48047 0
-419.505 -3.48497 0
-417.879 -3.48964 0
-416.25 -3.49159 0
-414.624 -3.49735 0
-412.997 -3.50123 0
-411.371 -3.50437 0
-409.743 -3.50708 0
-408.118 -3.50953 0
-406.491 -3.51256 0
-404.864 -3.51328 0
-403.238 -3.51478 0
-401.612 -3.51857 0
-399.985 -3.52248 0
-398.356 -3.52617 0
-396.729 -3.52996 0
-395.103 -3.53172 0
-393.476 -3.53347 0
-391.85 -3.53662 0
-390.223 -3.53835 0
-388.596 -3.54216 0
-386.97 -3.54315 0
-385.344 -3.5469 0
-383.717 -3.55151 0
-382.091 -3.55363 0
-380.466 -3.55636 0
-378.838 -3.56169 0
-377.212 -3.56452 0
-375.585 -3.56407 0
-373.958 -3.56872 0
-372.333 -3.5705 0
-370.705 -3.57286 0
-369.08 -3.57631 0
-367.452 -3.57814 0
-365.828 -3.58073 0
-364.202 -3.58539 0
-362.577 -3.5887 0
-360.949 -3.58825 0
-359.322 -3.59132 0
-357.694 -3.59317 0
-356.067 -3.59631 0
-354.442 -3.60017 0
-352.815 -3.60279 0
-351.189 -3.6044 0
-349.563 -3.60695 0
-347.938 -3.60893 0
-346.312 -3.60956 0
-344.685 -3.61061 0
-343.059 -3.61578 0
-341.43 -3.61786 0
-339.804 -3.62004 0
-338.179 -3.62186 0
-336.552 -3.62508 0
-334.927 -3.62764 0
-333.302 -3.62788 0
-331.677 -3.62983 0
-330.05 -3.63256 0
-328.422 -3.63416 0
-326.796 -3.6355 0
-325.171 -3.63706 0
-323.546 -3.63985 0
-321.919 -3.63933 0
-320.292 -3.64143 0
-318.666 -3.6418 0
-317.039 -3.64503 0
-315.411 -3.64882 0
-313.786 -3.64915 0
-312.158 -3.65211 0
-310.536 -3.65238 0
-308.908 -3.65394 0
-307.283 -3.65578 0
-305.658 -3.65821 0
-304.032 -3.65888 0
-302.405 -3.66017 0
-300.78 -3.66169 0
-299.153 -3.66208 0
-297.527 -3.66479 0
-295.899 -3.6658 0
-294.273 -3.66573 0
-292.649 -3.66793 0
-291.022 -3.66863 0
-289.395 -3.6722 0
-287.767 -3.67189 0
-286.14 -3.6748 0
-284.516 -3.67313 0
-282.892 -3.67445 0
-281.267 -3.67681 0
-279.641 -3.67859 0
-278.014 -3.67928 0
-276.388 -3.6818 0
-274.76 -3.68207 0
-273.131 -3.68248 0
-271.504 -3.68379 0
-269.877 -3.68259 0
-268.252 -3.68317 0
-266.626 -3.68389 0
-265.001 -3.68813 0
-263.373 -3.68836 0
-261.747 -3.69035 0
-260.121 -3.69027 0
-258.495 -3.69184 0
-256.869 -3.69203 0
-255.244 -3.69179 0
-253.616 -3.68985 0
-251.991 -3.68872 0
-250.365 -3.69274 0
-248.74 -3.69224 0
-247.115 -3.69264 0
-245.49 -3.6938 0
-243.863 -3.69364 0
-242.237 -3.69691 0
-240.61 -3.69822 0
-238.983 -3.69865 0
-237.357 -3.70197 0
-235.73 -3.70398 0
-234.104 -3.70487 0
-232.48 -3.70453 0
-230.853 -3.70449 0
-229.227 -3.70513 0
-227.601 -3.70527 0
-225.973 -3.70722 0
-224.346 -3.70938 0
-222.72 -3.70965 0
-221.092 -3.71053 0
-219.468 -3.70969 0
-217.841 -3.71155 0
-216.216 -3.71118 0
-214.589 -3.71262 0
-212.962 -3.71438 0
-211.338 -3.71644 0
-209.71 -3.71678 0
-208.085 -3.71912 0
-206.458 -3.72224 0
-204.83 -3.72374 0
-203.202 -3.72684 0
-201.578 -3.72664 0
-199.952 -3.72939 0
-198.327 -3.72754 0
-196.698 -3.72791 0
-195.073 -3.72799 0
-193.449 -3.72934 0
-191.822 -3.73106 0
-190.196 -3.73177 0
-188.571 -3.73108 0
-186.944 -3.73637 0
-185.319 -3.73458 0
-183.695 -3.73532 0
-182.068 -3.73765 0
-180.441 -3.74 0
-178.816 -3.73904 0
-177.191 -3.73768 0
-175.564 -3.74144 0
-173.937 -3.74092 0
-172.31 -3.74381 0
-170.683 -3.7443 0
-169.059 -3.74664 0
-167.432 -3.74771 0
-165.805 -3.74937 0
-164.179 -3.75135 0
-162.554 -3.75038 0
-160.927 -3.74989 0
-159.303 -3.75369 0
-157.677 -3.75918 0
-156.053 -3.75679 0
-154.426 -3.75935 0
-152.801 -3.7605 0
-151.173 -3.76264 0
-149.547 -3.76326 0
-147.922 -3.76588 0
-146.297 -3.76789 0
-144.671 -3.76816 0
-143.045 -3.7697 0
-141.418 -3.76954 0
-139.793 -3.77135 0
-138.165 -3.77397 0
-136.538 -3.77511 0
-134.914 -3.77536 0
-133.288 -3.7755 0
-131.662 -3.77615 0
-130.036 -3.77896 0
-128.409 -3.77829 0
-126.784 -3.78233 0
-125.156 -3.78374 0
-123.531 -3.78547 0
-121.904 -3.78863 0
-120.279 -3.78938 0
-118.655 -3.792 0
-117.031 -3.79417 0
-115.404 -3.79558 0
-113.78 -3.79564 0
-112.156 -3.79715 0
-110.529 -3.79762 0
-108.905 -3.79959 0
-107.277 -3.80365 0
-105.65 -3.80242 0
-104.025 -3.80439 0
-102.4 -3.80442 0
-100.775 -3.80601 0
-99.1489 -3.80885 0
-97.5242 -3.81046 0
-95.8984 -3.8132 0
-94.2715 -3.81364 0
-92.6485 -3.81587 0
-91.0234 -3.81952 0
-89.396 -3.81723 0
-87.7682 -3.81553 0
-86.1444 -3.81708 0
-84.5178 -3.81588 0
-82.8939 -3.81934 0
-81.2661 -3.82232 0
-79.6381 -3.82143 0
-78.01 -3.82487 0
-76.3867 -3.82771 0
-74.7628 -3.83032 0
-73.1359 -3.83069 0
-71.5107 -3.83088 0
-69.8855 -3.83005 0
-68.2618 -3.82975 0
-66.6353 -3.82858 0
-65.0078 -3.83033 0
-63.387 -3.83117 0
-61.7612 -3.83355 0
-60.1355 -3.8336 0
-58.5107 -3.83491 0
-56.8841 -3.83569 0
-55.2607 -3.83752 0
-53.6369 -3.8366 0
-52.0085 -3.83703 0
-50.3839 -3.83738 0
-48.7593 -3.83921 0
-47.135 -3.83751 0
-45.5091 -3.83875 0
-43.8825 -3.83965 0
-42.2566 -3.84014 0
-40.6329 -3.84322 0
-39.0077 -3.84048 0
-37.3834 -3.83667 0
-35.7566 -3.83798 0
-34.1317 -3.83982 0
-32.5066 -3.83919 0
-30.8818 -3.83957 0
-29.2567 -3.84 0
-27.6298 -3.84064 0
-26.0034 -3.8424 0
-24.38 -3.843 0
-22.7547 -3.84657 0
-21.1311 -3.84476 0
-19.5055 -3.84541 0
-17.8788 -3.84464 0
-16.2538 -3.84525 0
-14.6278 -3.8467 0
-13.0045 -3.84854 0
-11.378 -3.84384 0
-9.75194 -3.84367 0
-8.1265 -3.84348 0
-6.50008 -3.84407 0
-4.87578 -3.84406 0
-3.24985 -3.84561 0
-1.62583 -3.84462 0
0 -3.84456 0
-1104.55 62.7513 0
-1104.16 55.7159 0
-1103.92 49.1173 0
-1103.64 42.8149 0
-1103.36 36.7944 0
-1103.08 31.0487 0
-1102.77 25.5896 0
-1102.41 20.4275 0
-1101.97 15.5978 0
-1101.48 11.1393 0
-1100.96 7.06569 0
-1100.42 3.37473 0
-1099.85 0.0574225 0
-1099.27 -2.90136 0
-1098.66 -5.52207 0
-1098.04 -7.82738 0
-1097.39 -9.8419 0
-1096.72 -11.5919 0
-1096.01 -13.1019 0
-1095.28 -14.3953 0
-1094.52 -15.4926 0
-1093.72 -16.4135 0
-1092.9 -17.1761 0
-1092.04 -17.7962 0
-1091.15 -18.2875 0
-1090.23 -18.6617 0
-1089.28 -18.9306 0
-1088.3 -19.104 0
-1087.29 -19.1903 0
-1086.26 -19.1965 0
-1085.2 -19.1297 0
-1084.12 -18.9966 0
-1083.01 -18.8025 0
-1081.87 -18.552 0
-1080.71 -18.2503 0
-1079.53 -17.902 0
-1078.33 -17.5105 0
-1077.1 -17.0796 0
-1075.85 -16.6132 0
-1074.57 -16.1157 0
-1073.28 -15.5894 0
-1071.96 -15.0382 0
-1070.62 -14.4657 0
-1069.26 -13.8739 0
-1067.89 -13.2671 0
-1066.49 -12.6473 0
-1065.07 -12.0182 0
-1063.64 -11.3813 0
-1062.18 -10.7403 0
-1060.71 -10.0968 0
-1059.22 -9.45304 0
-1057.72 -8.81114 0
-1056.2 -8.17336 0
-1054.67 -7.54133 0
-1053.12 -6.91703 0
-1051.56 -6.30236 0
-1049.98 -5.69814 0
-1048.4 -5.10625 0
-1046.8 -4.52775 0
-1045.19 -3.96317 0
-1043.57 -3.41426 0
-1041.94 -2.88193 0
-1040.3 -2.36717 0
-1038.65 -1.87023 0
-1037 -1.39165 0
-1035.33 -0.93256 0
-1033.67 -0.493056 0
-1031.99 -0.0746594 0
-1030.31 0.323239 0
-1028.62 0.70142 0
-1026.93 1.05816 0
-1025.23 1.39382 0
-1023.53 1.70839 0
-1021.82 2.00209 0
-1020.12 2.27438 0
-1018.4 2.52619 0
-1016.69 2.75705 0
-1014.98 2.96795 0
-1013.26 3.15871 0
-1011.54 3.32854 0
-1009.83 3.47882 0
-1008.11 3.61052 0
-1006.39 3.72335 0
-1004.67 3.81689 0
-1002.95 3.893 0
-1001.24 3.9517 0
-999.519 3.99337 0
-997.803 4.01937 0
-996.09 4.02825 0
-994.378 4.02272 0
-992.667 4.00241 0
-990.958 3.96735 0
-989.251 3.91921 0
-987.546 3.8588 0
-985.844 3.78508 0
-984.144 3.70055 0
-982.447 3.6049 0
-980.753 3.49845 0
-979.061 3.3827 0
-977.371 3.25708 0
-975.685 3.12438 0
-974.002 2.98218 0