<?xml version="1.0"?>
<VTKFile type="StructuredGrid"  version="0.1" byte_order="LittleEndian" compressor="vtkZLibDataCompressor">
  <StructuredGrid WholeExtent="0 700 0 30 0 0">
    <Piece Extent="0 700 0 30 0 0">
      <PointData Vectors="Velocity">
        <DataArray type="Float32" Name="Velocity" NumberOfComponents="3" format="ascii">
-1094.28 102.441 0
-1094.39 94.1912 0
-1094.57 86.1126 0
-1094.78 78.3077 0
-1094.98 70.8083 0
-1095.16 63.585 0
-1095.33 56.6013 0
-1095.52 49.8901 0
-1095.73 43.5124 0
-1095.94 37.4954 0
-1096.13 31.8456 0
-1096.3 26.5615 0
-1096.45 21.6362 0
-1096.57 17.0608 0
-1096.65 12.8218 0
-1096.68 8.90367 0
-1096.66 5.2885 0
-1096.59 1.95783 0
-1096.46 -1.10625 0
-1096.28 -3.92201 0
-1096.04 -6.50606 0
-1095.75 -8.87346 0
-1095.4 -11.0393 0
-1095 -13.0163 0
-1094.56 -14.8178 0
-1094.07 -16.4539 0
-1093.54 -17.9361 0
-1092.97 -19.2724 0
-1092.36 -20.4719 0
-1091.71 -21.5432 0
-1091.03 -22.4918 0
-1090.31 -23.3243 0
-1089.56 -24.0465 0
-1088.79 -24.6642 0
-1087.98 -25.1822 0
-1087.14 -25.6042 0
-1086.27 -25.9357 0
-1085.38 -26.1809 0
-1084.45 -26.343 0
-1083.5 -26.4268 0
-1082.52 -26.4356 0
-1081.51 -26.3734 0
-1080.47 -26.2441 0
-1079.41 -26.0511 0
-1078.31 -25.7986 0
-1077.2 -25.4896 0
-1076.05 -25.1276 0
-1074.88 -24.7161 0
-1073.68 -24.2593 0
-1072.45 -23.7599 0
-1071.2 -23.2209 0
-1069.93 -22.6451 0
-1068.63 -22.0369 0
-1067.31 -21.3989 0
-1065.96 -20.7331 0
-1064.59 -20.0436 0
-1063.2 -19.3323 0
-1061.79 -18.6018 0
-1060.35 -17.8554 0
-1058.9 -17.0943 0
-1057.43 -16.3214 0
-1055.93 -15.5401 0
-1054.42 -14.7507 0
-1052.9 -13.9567 0
-1051.35 -13.1593 0
-1049.79 -12.36 0
-1048.21 -11.561 0
-1046.62 -10.7642 0
-1045.01 -9.97057 0
-1043.39 -9.1825 0
-1041.75 -8.40055 0
-1040.1 -7.62665 0
-1038.44 -6.86075 0
-1036.77 -6.10583 0
-1035.09 -5.36193 0
-1033.4 -4.63079 0
-1031.7 -3.91275 0
-1029.99 -3.20891 0
-1028.27 -2.52065 0
-1026.54 -1.84823 0
-1024.8 -1.19218 0
-1023.06 -0.553624 0
-1021.31 0.0671575 0
-1019.55 0.670009 0
-1017.79 1.25406 0
-1016.02 1.8188 0
-1014.25 2.36372 0
-1012.47 2.88844 0
-1010.69 3.39288 0
-1008.91 3.87694 0
-1007.12 4.34066 0
-1005.33 4.78345 0
-1003.54 5.20498 0
-1001.74 5.60582 0
-999.944 5.9857 0
-998.145 6.34438 0
-996.346 6.68239 0
-994.546 6.99959 0
-992.745 7.29531 0
-990.944 7.57075 0
-989.143 7.8262 0
-987.342 8.06071 0
-985.542 8.27502 0
-983.743 8.47013 0
-981.945 8.64513 0
-980.147 8.80038 0
-978.352 8.93632 0
-976.558 9.05379 0
-974.765 9.1534 0
-972.975 9.23394 0
-971.187 9.29661 0
-969.401 9.3425 0
-967.618 9.37098 0
-965.838 9.38305 0
-964.061 9.37868 0
-962.286 9.35939 0
-960.514 9.32428 0
-958.746 9.27353 0
-956.98 9.2093 0
-955.218 9.13107 0
-953.459 9.03896 0
-951.705 8.93444 0
-949.952 8.81687 0
-948.204 8.68669 0
-946.46 8.5455 0
-944.719 8.39342 0
-942.982 8.22979 0
-941.248 8.05575 0
-939.518 7.87298 0
-937.792 7.68111 0
-936.07 7.47995 0
-934.351 7.27113 0
-932.637 7.05439 0
-930.925 6.82996 0
-929.218 6.59872 0
-927.515 6.36111 0
-925.815 6.11859 0
-924.119 5.8713 0
-922.426 5.61859 0
-920.737 5.36103 0
-919.052 5.0993 0
-917.37 4.8335 0
-915.692 4.56485 0
-914.016 4.29392 0
-912.344 4.0209 0
-910.675 3.74559 0
-909.01 3.46844 0
-907.349 3.19044 0
-905.689 2.91195 0
-904.033 2.63289 0
-902.381 2.35361 0
-900.731 2.0751 0
-899.084 1.79744 0
-897.438 1.51997 0
-895.797 1.24422 0
-894.156 0.969572 0
-892.519 0.696556 0
-890.885 0.426554 0
-889.253 0.158578 0
-887.623 -0.106729 0
-885.995 -0.369492 0
-884.369 -0.628362 0
-882.745 -0.884294 0
-881.123 -1.1358 0
-879.504 -1.38423 0
-877.886 -1.62932 0
-876.27 -1.86968 0
-874.655 -2.10518 0
-873.041 -2.33639 0
-871.429 -2.56239 0
-869.817 -2.7845 0
-868.208 -3.00096 0
-866.6 -3.21223 0
-864.993 -3.41956 0
-863.387 -3.62016 0
-861.781 -3.81518 0
-860.177 -4.00539 0
-858.573 -4.1901 0
-856.969 -4.3687 0
-855.366 -4.54093 0
-853.764 -4.70894 0
-852.163 -4.87044 0
-850.562 -5.02595 0
-848.962 -5.17567 0
-847.36 -5.3191 0
-845.761 -5.45685 0
-844.16 -5.58871 0
-842.56 -5.71509 0
-840.96 -5.8356 0
-839.36 -5.94967 0
-837.76 -6.05681 0
-836.16 -6.15927 0
-834.56 -6.25647 0
-832.959 -6.34754 0
-831.359 -6.43367 0
-829.758 -6.51311 0
-828.156 -6.58801 0
-826.554 -6.65645 0
-824.952 -6.72003 0
-823.348 -6.77831 0
-821.745 -6.83145 0
-820.142 -6.87893 0
-818.538 -6.92187 0
-816.933 -6.95859 0
-815.326 -6.99213 0
-813.719 -7.02047 0
-812.112 -7.0431 0
-810.504 -7.06261 0
-808.895 -7.0778 0
-807.286 -7.08799 0
-805.676 -7.09371 0
-804.065 -7.09478 0
-802.453 -7.09318 0
-800.841 -7.08595 0
-799.227 -7.07551 0
-797.613 -7.06244 0
-795.998 -7.04511 0
-794.381 -7.02521 0
-792.765 -6.99964 0
-791.147 -6.97224 0
-789.529 -6.94265 0
-787.909 -6.90927 0
-786.288 -6.873 0
-784.666 -6.83302 0
-783.043 -6.7914 0
-781.42 -6.74745 0
-779.796 -6.70104 0
-778.171 -6.65177 0
-776.544 -6.60111 0
-774.916 -6.54794 0
-773.289 -6.4925 0
-771.66 -6.43634 0
-770.029 -6.379 0
-768.398 -6.31929 0
-766.766 -6.25743 0
-765.134 -6.19626 0
-763.5 -6.13189 0
-761.866 -6.06709 0
-760.231 -6.00065 0
-758.594 -5.93366 0
-756.957 -5.86579 0
-755.32 -5.79768 0
-753.681 -5.7286 0
-752.042 -5.65928 0
-750.401 -5.58957 0
-748.76 -5.52066 0
-747.118 -5.4509 0
-745.476 -5.37987 0
-743.832 -5.30907 0
-742.188 -5.23855 0
-740.543 -5.16805 0
-738.899 -5.09857 0
-737.253 -5.02884 0
-735.607 -4.95966 0
-733.959 -4.8901 0
-732.312 -4.82317 0
-730.664 -4.75494 0
-729.015 -4.68777 0
-727.366 -4.61967 0
-725.716 -4.55503 0
-724.065 -4.48979 0
-722.414 -4.42566 0
-720.763 -4.36237 0
-719.111 -4.29947 0
-717.46 -4.23859 0
-715.806 -4.17799 0
-714.154 -4.11937 0
-712.501 -4.06107 0
-710.847 -4.00456 0
-709.193 -3.94878 0
-707.539 -3.89535 0
-705.885 -3.84158 0
-704.229 -3.78998 0
-702.573 -3.74078 0
-700.919 -3.69225 0
-699.263 -3.64462 0
-697.609 -3.59906 0
-695.952 -3.55495 0
-694.295 -3.51184 0
-692.64 -3.47035 0
-690.982 -3.43027 0
-689.326 -3.39175 0
-687.668 -3.35515 0
-686.011 -3.32089 0
-684.354 -3.2878 0
-682.699 -3.25573 0
-681.042 -3.22553 0
-679.384 -3.19714 0
-677.726 -3.17053 0
-676.07 -3.14482 0
-674.414 -3.11976 0
-672.757 -3.09745 0
-671.101 -3.07736 0
-669.444 -3.05788 0
-667.787 -3.03894 0
-666.129 -3.02251 0
-664.473 -3.00753 0
-662.816 -2.99334 0
-661.161 -2.98002 0
-659.504 -2.96947 0
-657.848 -2.95935 0
-656.19 -2.9515 0
-654.534 -2.94433 0
-652.878 -2.94065 0
-651.222 -2.9365 0
-649.567 -2.93306 0
-647.912 -2.93359 0
-646.256 -2.93245 0
-644.602 -2.935 0
-642.947 -2.93735 0
-641.292 -2.94206 0
-639.638 -2.94511 0
-637.985 -2.95176 0
-636.331 -2.95653 0
-634.677 -2.96461 0
-633.025 -2.9736 0
-631.372 -2.9844 0
-629.719 -2.99667 0
-628.066 -3.01026 0
-626.414 -3.02199 0
-624.763 -3.03478 0
-623.111 -3.04941 0
-621.459 -3.06545 0
-619.807 -3.08247 0
-618.156 -3.0975 0
-616.504 -3.11663 0
-614.852 -3.13487 0
-613.202 -3.15429 0
-611.552 -3.17401 0
-609.902 -3.19499 0
-608.252 -3.21624 0
-606.604 -3.23876 0
-604.954 -3.26129 0
-603.305 -3.28336 0
-601.656 -3.3052 0
-600.007 -3.32932 0
-598.359 -3.35181 0
-596.711 -3.37722 0
-595.064 -3.40035 0
-593.417 -3.42513 0
-591.77 -3.45107 0
-590.123 -3.47671 0
-588.475 -3.50164 0
-586.828 -3.52693 0
-585.182 -3.55394 0
-583.536 -3.57837 0
-581.889 -3.60604 0
-580.244 -3.63234 0
-578.598 -3.65967 0
-576.954 -3.68563 0
-575.308 -3.71167 0
-573.664 -3.73798 0
-572.018 -3.76396 0
-570.374 -3.78943 0
-568.73 -3.81616 0
-567.087 -3.84176 0
-565.443 -3.86837 0
-563.8 -3.89344 0
-562.156 -3.91947 0
-560.513 -3.94388 0
-558.868 -3.9687 0
-557.225 -3.99405 0
-555.583 -4.01895 0
-553.941 -4.04481 0
-552.298 -4.0675 0
-550.655 -4.09091 0
-549.012 -4.11316 0
-547.369 -4.13559 0
-545.727 -4.15998 0
-544.085 -4.18165 0
-542.443 -4.2043 0
-540.803 -4.22477 0
-539.161 -4.24697 0
-537.519 -4.26822 0
-535.878 -4.28616 0
-534.237 -4.30714 0
-532.596 -4.32758 0
-530.956 -4.34528 0
-529.315 -4.36511 0
-527.672 -4.3819 0
-526.031 -4.39932 0
-524.391 -4.41517 0
-522.75 -4.43095 0
-521.11 -4.44672 0
-519.47 -4.46366 0
-517.829 -4.47867 0
-516.189 -4.49415 0
-514.549 -4.50604 0
-512.908 -4.52013 0
-511.267 -4.53054 0
-509.627 -4.54362 0
-507.987 -4.55523 0
-506.346 -4.56755 0
-504.706 -4.57824 0
-503.065 -4.5873 0
-501.425 -4.59636 0
-499.787 -4.60355 0
-498.145 -4.61265 0
-496.504 -4.61952 0
-494.863 -4.62725 0
-493.222 -4.63289 0
-491.582 -4.64029 0
-489.943 -4.64564 0
-488.302 -4.64951 0
-486.661 -4.65332 0
-485.022 -4.65796 0
-483.381 -4.66167 0
-481.741 -4.665 0
-480.1 -4.66629 0
-478.459 -4.66914 0
-476.818 -4.6708 0
-475.178 -4.67328 0
-473.537 -4.67336 0
-471.897 -4.67422 0
-470.257 -4.67154 0
-468.616 -4.67001 0
-466.975 -4.66956 0
-465.332 -4.66687 0
-463.692 -4.66611 0
-462.05 -4.66366 0
-460.409 -4.66087 0
-458.768 -4.6563 0
-457.128 -4.65358 0
-455.486 -4.64859 0
-453.845 -4.64666 0
-452.203 -4.63967 0
-450.562 -4.6342 0
-448.921 -4.62929 0
-447.279 -4.623 0
-445.637 -4.61583 0
-443.995 -4.61025 0
-442.354 -4.6032 0
-440.711 -4.59588 0
-439.068 -4.58727 0
-437.426 -4.58005 0
-435.785 -4.57022 0
-434.143 -4.55988 0
-432.5 -4.55274 0
-430.857 -4.54355 0
-429.215 -4.5351 0
-427.573 -4.52692 0
-425.931 -4.51571 0
-424.288 -4.50701 0
-422.646 -4.49506 0
-421.004 -4.48388 0
-419.361 -4.47253 0
-417.72 -4.46141 0
-416.074 -4.45144 0
-414.43 -4.44126 0
-412.787 -4.42906 0
-411.145 -4.4191 0
-409.501 -4.40564 0
-407.857 -4.39021 0
-406.214 -4.37892 0
-404.572 -4.36785 0
-402.927 -4.35575 0
-401.284 -4.34519 0
-399.639 -4.33093 0
-397.997 -4.31778 0
-396.351 -4.30629 0
-394.708 -4.29406 0
-393.064 -4.281 0
-391.421 -4.27161 0
-389.776 -4.2543 0
-388.132 -4.24077 0
-386.488 -4.22818 0
-384.842 -4.21681 0
-383.199 -4.20482 0
-381.555 -4.18992 0
-379.909 -4.17866 0
-378.264 -4.16554 0
-376.62 -4.15329 0
-374.976 -4.13981 0
-373.331 -4.12768 0
-371.687 -4.11528 0
-370.041 -4.1005 0
-368.396 -4.08812 0
-366.749 -4.0778 0
-365.106 -4.0664 0
-363.461 -4.05064 0
-361.816 -4.03789 0
-360.17 -4.0274 0
-358.525 -4.01357 0
-356.879 -4.00065 0
-355.233 -3.98875 0
-353.588 -3.97808 0
-351.943 -3.96619 0
-350.297 -3.9551 0
-348.652 -3.94286 0
-347.005 -3.93245 0
-345.361 -3.92064 0
-343.716 -3.91146 0
-342.071 -3.89995 0
-340.425 -3.89031 0
-338.781 -3.87711 0
-337.134 -3.86684 0
-335.489 -3.85654 0
-333.844 -3.84597 0
-332.199 -3.836 0
-330.552 -3.82603 0
-328.907 -3.81498 0
-327.262 -3.80524 0
-325.617 -3.79487 0
-323.971 -3.78675 0
-322.324 -3.77543 0
-320.678 -3.76642 0
-319.034 -3.75707 0
-317.387 -3.74909 0
-315.74 -3.73965 0
-314.096 -3.73197 0
-312.45 -3.72333 0
-310.805 -3.71309 0
-309.159 -3.70389 0
-307.516 -3.69611 0
-305.87 -3.69032 0
-304.224 -3.67979 0
-302.578 -3.67316 0
-300.931 -3.66419 0
-299.287 -3.65634 0
-297.641 -3.64965 0
-295.995 -3.64235 0
-294.349 -3.63678 0
-292.701 -3.63078 0
-291.058 -3.62349 0
-289.413 -3.61619 0
-287.768 -3.60853 0
-286.121 -3.60279 0
-284.477 -3.59787 0
-282.831 -3.5906 0
-281.184 -3.58277 0
-279.54 -3.58046 0
-277.893 -3.57317 0
-276.246 -3.57045 0
-274.601 -3.56612 0
-272.957 -3.56133 0
-271.311 -3.55521 0
-269.666 -3.54743 0
-268.023 -3.54376 0
-266.375 -3.53648 0
-264.729 -3.53174 0
-263.084 -3.52976 0
-261.438 -3.52345 0
-259.794 -3.52138 0
-258.149 -3.51772 0
-256.503 -3.51456 0
-254.857 -3.50994 0
-253.212 -3.50528 0
-251.568 -3.50323 0
-249.923 -3.50094 0
-248.277 -3.49744 0
-246.633 -3.4931 0
-244.987 -3.49048 0
-243.342 -3.48739 0
-241.697 -3.48501 0
-240.052 -3.48094 0
-238.407 -3.4777 0
-236.762 -3.47443 0
-235.115 -3.47081 0
-233.47 -3.46969 0
-231.825 -3.46907 0
-230.181 -3.46861 0
-228.537 -3.46338 0
-226.891 -3.46163 0
-225.245 -3.45979 0
-223.601 -3.45899 0
-221.955 -3.45688 0
-220.312 -3.45517 0
-218.667 -3.45462 0
-217.024 -3.45107 0
-215.38 -3.4496 0
-213.735 -3.44768 0
-212.087 -3.4462 0
-210.443 -3.4455 0
-208.799 -3.44317 0
-207.156 -3.44159 0
-205.511 -3.43881 0
-203.865 -3.43915 0
-202.22 -3.43569 0
-200.575 -3.43386 0
-198.93 -3.43311 0
-197.287 -3.43129 0
-195.642 -3.43013 0
-193.998 -3.43061 0
-192.353 -3.42797 0
-190.711 -3.42833 0
-189.065 -3.429 0
-187.418 -3.42671 0
-185.775 -3.42528 0
-184.129 -3.42429 0
-182.486 -3.42368 0
-180.84 -3.42034 0
-179.197 -3.41881 0
-177.553 -3.42 0
-175.912 -3.42086 0
-174.266 -3.41686 0
-172.621 -3.41669 0
-170.976 -3.41676 0
-169.332 -3.41604 0
-167.688 -3.41376 0
-166.046 -3.4138 0
-164.401 -3.41294 0
-162.755 -3.41218 0
-161.112 -3.41364 0
-159.468 -3.40958 0
-157.825 -3.41007 0
-156.178 -3.41017 0
-154.535 -3.40848 0
-152.892 -3.40721 0
-151.249 -3.40726 0
-149.605 -3.40339 0
-147.961 -3.40417 0
-146.315 -3.40313 0
-144.669 -3.40231 0
-143.025 -3.40206 0
-141.382 -3.40192 0
-139.738 -3.39983 0
-138.093 -3.39958 0
-136.449 -3.39987 0
-134.805 -3.39785 0
-133.161 -3.39697 0
-131.517 -3.39603 0
-129.872 -3.39321 0
-128.229 -3.39407 0
-126.586 -3.39483 0
-124.942 -3.39567 0
-123.299 -3.39684 0
-121.65 -3.39617 0
-120.005 -3.39307 0
-118.362 -3.39359 0
-116.719 -3.39241 0
-115.077 -3.39462 0
-113.431 -3.39274 0
-111.786 -3.39129 0
-110.142 -3.39069 0
-108.499 -3.38881 0
-106.857 -3.38845 0
-105.212 -3.38939 0
-103.569 -3.38816 0
-101.926 -3.38692 0
-100.282 -3.38673 0
-98.6364 -3.3856 0
-96.9928 -3.38613 0
-95.3476 -3.38545 0
-93.7054 -3.38438 0
-92.059 -3.38345 0
-90.4169 -3.38339 0
-88.7732 -3.38066 0
-87.1299 -3.38243 0
-85.4872 -3.38079 0
-83.8435 -3.3792 0
-82.2007 -3.37966 0
-80.5546 -3.37839 0
-78.9106 -3.37862 0
-77.2665 -3.37868 0
-75.6232 -3.37643 0
-73.9799 -3.37552 0
-72.3352 -3.37573 0
-70.6919 -3.37347 0
-69.0481 -3.37522 0
-67.406 -3.37329 0
-65.76 -3.37365 0
-64.115 -3.37309 0
-62.4728 -3.37297 0
-60.8271 -3.37086 0
-59.1815 -3.36773 0
-57.541 -3.37038 0
-55.8999 -3.37035 0
-54.2541 -3.36831 0
-52.6093 -3.36859 0
-50.9665 -3.36612 0
-49.3222 -3.36512 0
-47.6792 -3.36598 0
-46.0351 -3.36766 0
-44.391 -3.36427 0
-42.7454 -3.36345 0
-41.1001 -3.36277 0
-39.4573 -3.36212 0
-37.8148 -3.36015 0
-36.1695 -3.36065 0
-34.5246 -3.36062 0
-32.8827 -3.35908 0
-31.2394 -3.35861 0
-29.5964 -3.35786 0
-27.9527 -3.35686 0
-26.3059 -3.35853 0
-24.6599 -3.35561 0
-23.0166 -3.35571 0
-21.3708 -3.35384 0
-19.7283 -3.3556 0
-18.0844 -3.35489 0
-16.4408 -3.35601 0
-14.7984 -3.35327 0
-13.153 -3.3511 0
-11.5101 -3.35333 0
-9.86562 -3.35226 0
-8.22031 -3.35423 0
-6.57584 -3.35431 0
-4.93118 -3.35281 0
-3.2859 -3.35311 0
-1.64297 -3.35198 0
0 -3.35391 0
-1102.53 102.596 0
-1102.5 94.2979 0
-1102.46 86.2025 0
-1102.39 78.3899 0
-1102.31 70.8844 0
-1102.26 63.6561 0
-1102.2 56.6706 0
-1102.1 49.9599 0
-1101.97 43.5827 0
-1101.81 37.5691 0
-1101.64 31.9256 0
-1101.45 26.6514 0
-1101.25 21.7423 0
-1101.02 17.1887 0
-1100.76 12.9774 0
-1100.48 9.09242 0
-1100.16 5.5146 0
-1099.81 2.2246 0
-1099.42 -0.797108 0
-1099 -3.5692 0
-1098.53 -6.10952 0
-1098.03 -8.43381 0
-1097.48 -10.5576 0
-1096.91 -12.4945 0
-1096.29 -14.2569 0
-1095.64 -15.8564 0
-1094.96 -17.303 0
-1094.24 -18.6057 0
-1093.5 -19.7731 0
-1092.72 -20.8132 0
-1091.92 -21.7321 0
-1091.09 -22.5361 0
-1090.24 -23.23 0
-1089.36 -23.8204 0
-1088.45 -24.3115 0
-1087.52 -24.7073 0
-1086.56 -25.0125 0
-1085.58 -25.2314 0
-1084.58 -25.3674 0
-1083.55 -25.4253 0
-1082.49 -25.4084 0
-1081.42 -25.3205 0
-1080.31 -25.1656 0
-1079.19 -24.9468 0
-1078.04 -24.6688 0
-1076.86 -24.3349 0
-1075.67 -23.9482 0
-1074.45 -23.5122 0
-1073.2 -23.031 0
-1071.94 -22.5076 0
-1070.65 -21.9445 0
-1069.34 -21.3464 0
-1068.01 -20.7159 0
-1066.66 -20.0549 0
-1065.29 -19.3682 0
-1063.9 -18.6572 0
-1062.49 -17.9257 0
-1061.05 -17.1751 0
-1059.61 -16.4092 0
-1058.14 -15.6295 0
-1056.66 -14.8386 0
-1055.15 -14.0392 0
-1053.64 -13.2332 0
-1052.11 -12.4225 0
-1050.56 -11.609 0
-1048.99 -10.7945 0
-1047.42 -9.98101 0
-1045.83 -9.16964 0
-1044.22 -8.3629 0
-1042.61 -7.56189 0
-1040.98 -6.76749 0
-1039.34 -5.9819 0
-1037.69 -5.20499 0
-1036.03 -4.43939 0
-1034.36 -3.68556 0
-1032.68 -2.94464 0
-1030.99 -2.21752 0
-1029.29 -1.50538 0
-1027.59 -0.808864 0
-1025.88 -0.128808 0
-1024.16 0.53415 0
-1022.43 1.17923 0
-1020.7 1.80611 0
-1018.96 2.41466 0
-1017.22 3.00418 0
-1015.47 3.57388 0
-1013.72 4.12331 0
-1011.96 4.652 0
-1010.2 5.16024 0
-1008.44 5.64777 0
-1006.67 6.11386 0
-1004.9 6.55934 0
-1003.13 6.98331 0
-1001.35 7.38601 0
-999.578 7.76758 0
-997.8 8.12756 0
-996.022 8.46653 0
-994.242 8.78431 0
-992.462 9.08045 0
-990.681 9.35617 0
-988.9 9.61129 0
-987.12 9.84549 0
-985.34 10.0595 0
-983.56 10.2534 0
-981.781 10.4275 0
-980.003 10.5816 0
-978.226 10.7163 0
-976.451 10.8322 0
-974.677 10.9297 0
-972.905 11.0085 0
-971.134 11.0697 0
-969.366 11.113 0
-967.599 11.1388 0
-965.835 11.1483 0
-964.073 11.1419 0
-962.314 11.1192 0
-960.558 11.0813 0
-958.804 11.0283 0
-957.052 10.9607 0
-955.304 10.8791 0
-953.558 10.7839 0
-951.816 10.676 0
-950.076 10.5549 0
-948.34 10.4217 0
-946.607 10.2772 0
-944.877 10.1214 0
-943.15 9.95467 0
-941.426 9.77743 0
-939.706 9.59087 0
-937.988 9.39518 0
-936.274 9.19074 0
-934.564 8.9779 0
-932.856 8.7577 0
-931.152 8.53025 0
-929.452 8.29558 0
-927.754 8.05485 0
-926.059 7.80891 0
-924.368 7.55778 0
-922.681 7.30152 0
-920.996 7.04059 0
-919.315 6.77572 0
-917.636 6.50713 0
-915.96 6.23559 0
-914.287 5.96139 0
-912.617 5.68447 0
-910.95 5.40633 0
-909.287 5.1265 0
-907.625 4.84577 0
-905.967 4.56406 0
-904.311 4.28222 0
-902.658 4.00005 0
-901.007 3.71908 0
-899.359 3.43856 0
-897.714 3.15906 0
-896.07 2.88074 0
-894.429 2.60394 0
-892.79 2.32864 0
-891.153 2.05635 0
-889.518 1.78644 0
-887.885 1.51868 0
-886.254 1.25402 0
-884.625 0.992673 0
-882.998 0.735227 0
-881.373 0.481443 0
-879.749 0.231945 0
-878.127 -0.0149714 0
-876.506 -0.256605 0
-874.886 -0.493428 0
-873.268 -0.726022 0
-871.651 -0.953953 0
-870.036 -1.17686 0
-868.421 -1.39463 0
-866.808 -1.60772 0
-865.195 -1.8154 0
-863.584 -2.01679 0
-861.973 -2.21265 0
-860.363 -2.40344 0
-858.754 -2.58882 0
-857.144 -2.76756 0
-855.536 -2.94119 0
-853.928 -3.10924 0
-852.32 -3.27142 0
-850.714 -3.42706 0
-849.107 -3.57718 0
-847.501 -3.72108 0
-845.895 -3.85866 0
-844.288 -3.9912 0
-842.683 -4.11705 0
-841.077 -4.23803 0
-839.471 -4.35123 0
-837.865 -4.45979 0
-836.26 -4.56157 0
-834.654 -4.65832 0
-833.047 -4.74962 0
-831.441 -4.83461 0
-829.835 -4.91423 0
-828.227 -4.98858 0
-826.62 -5.05704 0
-825.013 -5.12041 0
-823.404 -5.178 0
-821.796 -5.23061 0
-820.187 -5.27795 0
-818.577 -5.31997 0
-816.967 -5.35713 0
-815.357 -5.38898 0
-813.745 -5.41618 0
-812.133 -5.4391 0
-810.521 -5.45726 0
-808.908 -5.47141 0
-807.294 -5.48066 0
-805.679 -5.48603 0
-804.064 -5.48757 0
-802.449 -5.48393 0
-800.832 -5.47612 0
-799.215 -5.46563 0
-797.597 -5.45101 0
-795.979 -5.43341 0
-794.359 -5.41209 0
-792.739 -5.38616 0
-791.118 -5.35834 0
-789.496 -5.32716 0
-787.874 -5.29244 0
-786.25 -5.25541 0
-784.626 -5.21496 0
-783.001 -5.17231 0
-781.375 -5.12786 0
-779.748 -5.08036 0
-778.12 -5.02986 0
-776.492 -4.97817 0
-774.862 -4.9245 0
-773.232 -4.86867 0
-771.602 -4.81111 0
-769.971 -4.75277 0
-768.338 -4.69238 0
-766.705 -4.63033 0
-765.071 -4.56778 0
-763.437 -4.50318 0
-761.801 -4.43643 0
-760.165 -4.36984 0
-758.527 -4.30156 0
-756.89 -4.23336 0
-755.252 -4.16456 0
-753.612 -4.09514 0
-751.973 -4.0257 0
-750.332 -3.95443 0
-748.69 -3.88497 0
-747.048 -3.8134 0
-745.405 -3.74245 0
-743.762 -3.67053 0
-742.118 -3.59988 0
-740.474 -3.52901 0
-738.829 -3.45868 0
-737.184 -3.38862 0
-735.538 -3.31803 0
-733.891 -3.24943 0
-732.244 -3.18088 0
-730.596 -3.11187 0
-728.948 -3.04419 0
-727.3 -2.97637 0
-725.651 -2.90962 0
-724 -2.84427 0
-722.35 -2.77994 0
-720.7 -2.71615 0
-719.049 -2.65377 0
-717.399 -2.59283 0
-715.748 -2.53143 0
-714.096 -2.47234 0
-712.444 -2.41361 0
-710.791 -2.35673 0
-709.139 -2.30121 0
-707.486 -2.24634 0
-705.833 -2.19322 0
-704.179 -2.14138 0
-702.525 -2.09074 0
-700.871 -2.04261 0
-699.217 -1.99572 0
-697.562 -1.94913 0
-695.908 -1.90436 0
-694.254 -1.86163 0
-692.598 -1.8203 0
-690.944 -1.77973 0
-689.289 -1.74107 0
-687.634 -1.70455 0
-685.979 -1.67019 0
-684.323 -1.6372 0
-682.668 -1.60515 0
-681.013 -1.57466 0
-679.357 -1.54603 0
-677.702 -1.51987 0
-676.046 -1.49402 0
-674.391 -1.46964 0
-672.735 -1.44655 0
-671.08 -1.42616 0
-669.424 -1.40674 0
-667.768 -1.38759 0
-666.114 -1.37079 0
-664.459 -1.35663 0
-662.803 -1.34322 0
-661.148 -1.3307 0
-659.494 -1.31939 0
-657.839 -1.30949 0
-656.184 -1.30122 0
-654.529 -1.29527 0
-652.875 -1.29075 0
-651.22 -1.28654 0
-649.566 -1.28432 0
-647.912 -1.28349 0
-646.258 -1.2841 0
-644.604 -1.2851 0
-642.951 -1.28824 0
-641.297 -1.29281 0
-639.644 -1.29741 0
-637.991 -1.30319 0
-636.338 -1.30927 0
-634.686 -1.31793 0
-633.033 -1.32684 0
-631.382 -1.33714 0
-629.731 -1.34968 0
-628.08 -1.36248 0
-626.427 -1.37511 0
-624.776 -1.38929 0
-623.126 -1.4032 0
-621.475 -1.41939 0
-619.824 -1.43538 0
-618.172 -1.45199 0
-616.521 -1.4706 0
-614.871 -1.48944 0
-613.223 -1.51003 0
-611.573 -1.5298 0
-609.923 -1.55057 0
-608.275 -1.573 0
-606.625 -1.59435 0
-604.976 -1.61785 0
-603.327 -1.63915 0
-601.679 -1.66233 0
-600.03 -1.68603 0
-598.382 -1.70894 0
-596.734 -1.73408 0
-595.087 -1.75895 0
-593.442 -1.78309 0
-591.794 -1.80844 0
-590.147 -1.83403 0
-588.5 -1.85956 0
-586.854 -1.88574 0
-585.208 -1.91243 0
-583.562 -1.9377 0
-581.917 -1.96539 0
-580.27 -1.99227 0
-578.625 -2.01911 0
-576.98 -2.04566 0
-575.335 -2.07168 0
-573.689 -2.09849 0
-572.045 -2.12516 0
-570.4 -2.15152 0
-568.756 -2.17648 0
-567.112 -2.20469 0
-565.468 -2.22932 0
-563.824 -2.25488 0
-562.181 -2.28092 0
-560.538 -2.30569 0
-558.894 -2.3313 0
-557.251 -2.35651 0
-555.608 -2.38201 0
-553.965 -2.40559 0
-552.321 -2.42982 0
-550.678 -2.45386 0
-549.035 -2.47638 0
-547.393 -2.49861 0
-545.751 -2.52313 0
-544.108 -2.54483 0
-542.465 -2.56787 0
-540.824 -2.58862 0
-539.182 -2.6096 0
-537.541 -2.63138 0
-535.899 -2.65091 0
-534.257 -2.67067 0
-532.615 -2.69069 0
-530.973 -2.70917 0
-529.332 -2.72796 0
-527.69 -2.7466 0
-526.049 -2.76342 0
-524.408 -2.77983 0
-522.767 -2.79578 0
-521.126 -2.8108 0
-519.485 -2.82826 0
-517.845 -2.84306 0
-516.203 -2.85724 0
-514.562 -2.87085 0
-512.921 -2.88408 0
-511.28 -2.89538 0
-509.639 -2.90791 0
-507.998 -2.91958 0
-506.357 -2.93179 0
-504.716 -2.94291 0
-503.074 -2.95169 0
-501.434 -2.96209 0
-499.793 -2.96854 0
-498.152 -2.97683 0
-496.512 -2.98362 0
-494.871 -2.98963 0
-493.229 -2.99752 0
-491.589 -3.0038 0
-489.947 -3.00997 0
-488.306 -3.01447 0
-486.665 -3.01964 0
-485.025 -3.0228 0
-483.385 -3.0263 0
-481.744 -3.0286 0
-480.103 -3.03236 0
-478.462 -3.03287 0
-476.82 -3.03486 0
-475.18 -3.03711 0
-473.538 -3.03704 0
-471.896 -3.03797 0
-470.256 -3.03652 0
-468.615 -3.03433 0
-466.973 -3.0336 0
-465.331 -3.03125 0
-463.691 -3.03019 0
-462.049 -3.02824 0
-460.407 -3.02494 0
-458.765 -3.02164 0
-457.124 -3.01715 0
-455.482 -3.01271 0
-453.84 -3.01042 0
-452.198 -3.00395 0
-450.557 -2.9981 0
-448.915 -2.99222 0
-447.272 -2.98591 0
-445.63 -2.97954 0
-443.987 -2.97281 0
-442.345 -2.96596 0
-440.703 -2.9579 0
-439.06 -2.95004 0
-437.418 -2.94331 0
-435.777 -2.93418 0
-434.134 -2.92255 0
-432.491 -2.91515 0
-430.849 -2.90615 0
-429.207 -2.89793 0
-427.564 -2.88827 0
-425.921 -2.87811 0
-424.278 -2.86827 0
-422.635 -2.85775 0
-420.992 -2.84617 0
-419.349 -2.83495 0
-417.706 -2.8229 0
-416.063 -2.81263 0
-414.42 -2.80304 0
-412.776 -2.79164 0
-411.131 -2.78029 0
-409.488 -2.7669 0
-407.844 -2.75353 0
-406.202 -2.74082 0
-404.559 -2.72976 0
-402.916 -2.71923 0
-401.271 -2.70513 0
-399.626 -2.69264 0
-397.983 -2.68101 0
-396.34 -2.66702 0
-394.694 -2.65517 0
-393.051 -2.64273 0
-391.407 -2.6306 0
-389.761 -2.61621 0
-388.118 -2.60211 0
-386.473 -2.5898 0
-384.83 -2.5774 0
-383.185 -2.56478 0
-381.541 -2.55141 0
-379.896 -2.53873 0
-378.252 -2.52714 0
-376.607 -2.5141 0
-374.963 -2.50079 0
-373.318 -2.4889 0
-371.673 -2.47603 0
-370.028 -2.46226 0
-368.384 -2.44934 0
-366.74 -2.4381 0
-365.094 -2.42552 0
-363.448 -2.41189 0
-361.803 -2.39866 0
-360.158 -2.38584 0
-358.512 -2.37315 0
-356.868 -2.36051 0
-355.222 -2.34893 0
-353.577 -2.33776 0
-351.931 -2.32674 0
-350.285 -2.31481 0
-348.641 -2.30331 0
-346.995 -2.29186 0
-345.35 -2.28191 0
-343.705 -2.27055 0
-342.059 -2.26042 0
-340.414 -2.24978 0
-338.768 -2.23768 0
-337.123 -2.22727 0
-335.479 -2.21756 0
-333.833 -2.20627 0
-332.187 -2.19529 0
-330.542 -2.18495 0
-328.897 -2.17492 0
-327.251 -2.16652 0
-325.607 -2.15503 0
-323.96 -2.14605 0
-322.314 -2.13649 0
-320.669 -2.12669 0
-319.024 -2.11783 0
-317.378 -2.10815 0
-315.732 -2.09953 0
-314.086 -2.0916 0
-312.441 -2.08311 0
-310.795 -2.07259 0
-309.15 -2.06546 0
-307.505 -2.05573 0
-305.861 -2.04906 0
-304.215 -2.0397 0
-302.57 -2.03281 0
-300.925 -2.02425 0
-299.279 -2.0174 0
-297.634 -2.00965 0
-295.988 -2.00308 0
-294.341 -1.9957 0
-292.695 -1.99006 0
-291.051 -1.98345 0
-289.406 -1.97667 0
-287.761 -1.96969 0
-286.115 -1.96202 0
-284.47 -1.95703 0
-282.825 -1.95041 0
-281.18 -1.94426 0
-279.534 -1.93966 0
-277.888 -1.93364 0
-276.243 -1.92945 0
-274.598 -1.92543 0
-272.95 -1.91915 0
-271.305 -1.91516 0
-269.661 -1.90891 0
-268.014 -1.90348 0
-266.368 -1.89727 0
-264.725 -1.89252 0
-263.08 -1.88868 0
-261.435 -1.88483 0
-259.791 -1.88265 0
-258.145 -1.87777 0
-256.5 -1.87348 0
-254.854 -1.87067 0
-253.209 -1.86584 0
-251.565 -1.8626 0
-249.92 -1.86065 0
-248.274 -1.85734 0
-246.63 -1.85405 0
-244.985 -1.851 0
-243.338 -1.84835 0
-241.694 -1.84529 0
-240.048 -1.84208 0
-238.403 -1.83805 0
-236.758 -1.83472 0
-235.114 -1.83291 0
-233.469 -1.83174 0
-231.824 -1.83034 0
-230.178 -1.82738 0
-228.535 -1.82451 0
-226.889 -1.82198 0
-225.245 -1.82015 0
-223.599 -1.81948 0
-221.954 -1.81674 0
-220.311 -1.81638 0
-218.665 -1.81425 0
-217.02 -1.81195 0
-215.377 -1.81072 0
-213.732 -1.80818 0
-212.088 -1.80696 0
-210.443 -1.80443 0
-208.798 -1.80395 0
-207.154 -1.80242 0
-205.508 -1.80027 0
-203.862 -1.79846 0
-202.219 -1.79692 0
-200.574 -1.79531 0
-198.93 -1.79379 0
-197.285 -1.79291 0
-195.642 -1.79164 0
-193.997 -1.79077 0
-192.351 -1.79104 0
-190.708 -1.79015 0
-189.063 -1.78797 0
-187.419 -1.78823 0
-185.773 -1.78546 0
-184.128 -1.78446 0
-182.485 -1.78452 0
-180.842 -1.78308 0
-179.196 -1.78167 0
-177.553 -1.78211 0
-175.908 -1.78039 0
-174.264 -1.77862 0
-172.62 -1.77672 0
-170.975 -1.77727 0
-169.332 -1.77599 0
-167.687 -1.77577 0
-166.044 -1.77461 0
-164.399 -1.77323 0
-162.755 -1.77348 0
-161.111 -1.77314 0
-159.467 -1.77248 0
-157.821 -1.77031 0
-156.178 -1.77074 0
-154.533 -1.76951 0
-152.89 -1.76888 0
-151.247 -1.76783 0
-149.602 -1.76599 0
-147.957 -1.76442 0
-146.312 -1.76412 0
-144.668 -1.76281 0
-143.025 -1.76456 0
-141.381 -1.76327 0
-139.736 -1.75954 0
-138.092 -1.76046 0
-136.449 -1.76111 0
-134.804 -1.76085 0
-133.161 -1.75801 0
-131.516 -1.75838 0
-129.872 -1.7547 0
-128.228 -1.75548 0
-126.584 -1.75592 0
-124.941 -1.75495 0
-123.296 -1.75596 0
-121.651 -1.7558 0
-120.007 -1.75428 0
-118.363 -1.75409 0
-116.719 -1.75475 0
-115.075 -1.75497 0
-113.431 -1.75342 0
-111.787 -1.75237 0
-110.143 -1.75305 0
-108.499 -1.75169 0
-106.855 -1.75038 0
-105.211 -1.74959 0
-103.568 -1.74904 0
-101.924 -1.74979 0
-100.282 -1.74782 0
-98.6378 -1.74732 0
-96.9926 -1.7459 0
-95.3485 -1.74672 0
-93.703 -1.74496 0
-92.0611 -1.74622 0
-90.4175 -1.74437 0
-88.7737 -1.7444 0
-87.1302 -1.74364 0
-85.4866 -1.74281 0
-83.8425 -1.7429 0
-82.1993 -1.74053 0
-80.5556 -1.73995 0
-78.9102 -1.74007 0
-77.2651 -1.73887 0
-75.6213 -1.73866 0
-73.9779 -1.73812 0
-72.3353 -1.73719 0
-70.6919 -1.73531 0
-69.0476 -1.73661 0
-67.4037 -1.73676 0
-65.7594 -1.73415 0
-64.1149 -1.73443 0
-62.4707 -1.73403 0
-60.8273 -1.73118 0
-59.1827 -1.73107 0
-57.5407 -1.73208 0
-55.8961 -1.73188 0
-54.2524 -1.73024 0
-52.6081 -1.72924 0
-50.9644 -1.7274 0
-49.3207 -1.72757 0
-47.6771 -1.72653 0
-46.0328 -1.72573 0
-44.3889 -1.72525 0
-42.743 -1.7249 0
-41.1011 -1.72398 0
-39.4572 -1.72298 0
-37.8116 -1.72125 0
-36.1672 -1.72163 0
-34.5243 -1.72168 0
-32.8816 -1.72105 0
-31.2374 -1.72065 0
-29.5931 -1.71959 0
-27.9483 -1.71973 0
-26.3051 -1.71814 0
-24.6614 -1.7159 0
-23.0162 -1.71789 0
-21.371 -1.71618 0
-19.7278 -1.71563 0
-18.0841 -1.71676 0
-16.4408 -1.71698 0
-14.7963 -1.71501 0
-13.1522 -1.71335 0
-11.509 -1.71424 0
-9.86501 -1.71289 0
-8.22109 -1.71468 0
-6.57512 -1.71564 0
-4.92985 -1.71381 0
-3.28665 -1.71289 0
-1.64282 -1.71459 0
0 -1.71408 0
-1111.13 103.086 0
-1110.71 94.6183 0
-1110.41 86.5475 0
-1110.09 78.7501 0
-1109.75 71.2277 0
-1109.41 63.9791 0
-1109.06 57.014 0
-1108.66 50.345 0
-1108.21 43.9962 0
-1107.72 37.9964 0
-1107.2 32.3625 0
-1106.66 27.0971 0
-1106.11 22.1973 0
-1105.54 17.6552 0
-1104.95 13.4581 0
-1104.35 9.58978 0
-1103.73 6.0317 0
-1103.1 2.76399 0
-1102.44 -0.233074 0
-1101.77 -2.97892 0
-1101.07 -5.49145 0
-1100.35 -7.78834 0
-1099.61 -9.88396 0
-1098.84 -11.793 0
-1098.05 -13.5284 0
-1097.24 -15.1015 0
-1096.4 -16.5225 0
-1095.54 -17.8002 0
-1094.66 -18.9437 0
-1093.76 -19.9601 0
-1092.84 -20.8556 0
-1091.89 -21.6366 0
-1090.93 -22.3086 0
-1089.95 -22.8768 0
-1088.94 -23.3456 0
-1087.92 -23.7189 0
-1086.87 -24.0024 0
-1085.81 -24.1992 0
-1084.72 -24.3132 0
-1083.61 -24.3491 0
-1082.49 -24.3101 0
-1081.34 -24.2001 0
-1080.17 -24.0231 0
-1078.98 -23.783 0
-1077.78 -23.4829 0
-1076.55 -23.127 0
-1075.3 -22.7189 0
-1074.03 -22.2619 0
-1072.74 -21.7599 0
-1071.44 -21.2156 0
-1070.11 -20.6325 0
-1068.77 -20.0143 0
-1067.4 -19.3641 0
-1066.02 -18.6842 0
-1064.63 -17.9786 0
-1063.21 -17.2494 0
-1061.78 -16.4992 0
-1060.33 -15.7319 0
-1058.87 -14.9489 0
-1057.39 -14.1524 0
-1055.89 -13.346 0
-1054.38 -12.5312 0
-1052.86 -11.7097 0
-1051.32 -10.8844 0
-1049.77 -10.0567 0
-1048.21 -9.22863 0
-1046.63 -8.40234 0
-1045.04 -7.57889 0
-1043.44 -6.75986 0
-1041.83 -5.94723 0
-1040.21 -5.14219 0
-1038.58 -4.34593 0
-1036.94 -3.55924 0
-1035.29 -2.78421 0
-1033.63 -2.02113 0
-1031.96 -1.27182 0
-1030.29 -0.536337 0
-1028.61 0.183623 0
-1026.92 0.887295 0
-1025.22 1.5742 0
-1023.52 2.24352 0
-1021.81 2.8946 0
-1020.09 3.52736 0
-1018.37 4.14118 0
-1016.65 4.73535 0
-1014.92 5.30952 0
-1013.19 5.86311 0
-1011.45 6.39562 0
-1009.71 6.90707 0
-1007.97 7.39777 0
-1006.22 7.86689 0
-1004.47 8.3147 0
-1002.72 8.74073 0
-1000.97 9.14519 0
-999.211 9.52854 0
-997.454 9.88989 0
-995.696 10.2299 0
-993.937 10.5481 0
-992.177 10.8453 0
-990.417 11.1214 0
-988.657 11.3762 0
-986.896 11.6104 0
-985.136 11.8242 0
-983.376 12.0175 0
-981.616 12.1906 0
-979.857 12.344 0
-978.099 12.4773 0
-976.342 12.5921 0
-974.587 12.6883 0