<?xml version="1.0"?>
<VTKFile type="StructuredGrid"  version="0.1" byte_order="LittleEndian" compressor="vtkZLibDataCompressor">
  <StructuredGrid WholeExtent="0 700 0 30 0 0">
    <Piece Extent="0 700 0 30 0 0">
      <PointData Vectors="Velocity">
        <DataArray type="Float32" Name="Velocity" NumberOfComponents="3" format="ascii">
-1093.74 101.823 0
-1093.84 93.1351 0
-1094 84.6149 0
-1094.19 76.3589 0
-1094.39 68.4 0
-1094.56 60.7234 0
-1094.72 53.303 0
-1094.91 46.1621 0
-1095.11 39.3517 0
-1095.31 32.8964 0
-1095.49 26.8019 0
-1095.66 21.0655 0
-1095.81 15.6872 0
-1095.93 10.6563 0
-1096.01 5.96264 0
-1096.05 1.59105 0
-1096.05 -2.4742 0
-1095.99 -6.24958 0
-1095.89 -9.753 0
-1095.73 -13.0024 0
-1095.52 -16.0104 0
-1095.27 -18.7967 0
-1094.96 -21.3729 0
-1094.61 -23.7488 0
-1094.21 -25.9383 0
-1093.76 -27.956 0
-1093.28 -29.8084 0
-1092.76 -31.5023 0
-1092.21 -33.0498 0
-1091.62 -34.4565 0
-1091 -35.7286 0
-1090.35 -36.8733 0
-1089.67 -37.8958 0
-1088.95 -38.8018 0
-1088.21 -39.5949 0
-1087.45 -40.2795 0
-1086.65 -40.8608 0
-1085.83 -41.344 0
-1084.98 -41.7288 0
-1084.1 -42.0244 0
-1083.2 -42.2317 0
-1082.26 -42.3537 0
-1081.31 -42.3968 0
-1080.32 -42.3636 0
-1079.31 -42.256 0
-1078.27 -42.0782 0
-1077.21 -41.8354 0
-1076.12 -41.5319 0
-1075 -41.1687 0
-1073.86 -40.75 0
-1072.69 -40.2775 0
-1071.5 -39.7574 0
-1070.28 -39.1914 0
-1069.03 -38.5844 0
-1067.77 -37.9364 0
-1066.48 -37.2526 0
-1065.17 -36.5352 0
-1063.83 -35.7874 0
-1062.47 -35.0134 0
-1061.09 -34.2135 0
-1059.69 -33.393 0
-1058.27 -32.5507 0
-1056.83 -31.6914 0
-1055.38 -30.8175 0
-1053.9 -29.9312 0
-1052.4 -29.0325 0
-1050.89 -28.1263 0
-1049.36 -27.2125 0
-1047.81 -26.2955 0
-1046.25 -25.3764 0
-1044.67 -24.4539 0
-1043.08 -23.5328 0
-1041.47 -22.6129 0
-1039.85 -21.6939 0
-1038.22 -20.783 0
-1036.58 -19.8784 0
-1034.92 -18.9784 0
-1033.25 -18.0894 0
-1031.57 -17.2079 0
-1029.88 -16.3384 0
-1028.18 -15.4817 0
-1026.47 -14.6359 0
-1024.75 -13.8049 0
-1023.03 -12.9892 0
-1021.3 -12.1885 0
-1019.55 -11.403 0
-1017.81 -10.6346 0
-1016.05 -9.8847 0
-1014.29 -9.15069 0
-1012.53 -8.43367 0
-1010.75 -7.73623 0
-1008.98 -7.05897 0
-1007.19 -6.40145 0
-1005.41 -5.76144 0
-1003.62 -5.14309 0
-1001.83 -4.5448 0
-1000.03 -3.96734 0
-998.232 -3.41008 0
-996.43 -2.87231 0
-994.626 -2.35811 0
-992.822 -1.86406 0
-991.016 -1.39084 0
-989.207 -0.941034 0
-987.399 -0.51057 0
-985.589 -0.101157 0
-983.778 0.287033 0
-981.968 0.653308 0
-980.158 1.00054 0
-978.347 1.32642 0
-976.538 1.63153 0
-974.729 1.91672 0
-972.921 2.18075 0
-971.114 2.42616 0
-969.309 2.65199 0
-967.506 2.85843 0
-965.704 3.04413 0
-963.903 3.21371 0
-962.105 3.36288 0
-960.31 3.49478 0
-958.515 3.60748 0
-956.723 3.70487 0
-954.935 3.78438 0
-953.149 3.84628 0
-951.364 3.89353 0
-949.583 3.92297 0
-947.806 3.93968 0
-946.031 3.93869 0
-944.26 3.92524 0
-942.492 3.89574 0
-940.727 3.85172 0
-938.966 3.79699 0
-937.208 3.72768 0
-935.452 3.64638 0
-933.7 3.55316 0
-931.953 3.44981 0
-930.208 3.33332 0
-928.467 3.20655 0
-926.73 3.06984 0
-924.997 2.92283 0
-923.267 2.76633 0
-921.539 2.60237 0
-919.817 2.42886 0
-918.098 2.24975 0
-916.382 2.06059 0
-914.669 1.8654 0
-912.96 1.66498 0
-911.254 1.4566 0
-909.552 1.24199 0
-907.854 1.02314 0
-906.16 0.798229 0
-904.467 0.571016 0
-902.779 0.337962 0
-901.094 0.102894 0
-899.412 -0.137332 0
-897.732 -0.3791 0
-896.057 -0.623537 0
-894.383 -0.869705 0
-892.714 -1.11838 0
-891.049 -1.36811 0
-889.385 -1.61892 0
-887.725 -1.86992 0
-886.067 -2.12174 0
-884.412 -2.37366 0
-882.76 -2.6248 0
-881.111 -2.87668 0
-879.463 -3.1268 0
-877.819 -3.37515 0
-876.175 -3.62339 0
-874.536 -3.87018 0
-872.899 -4.11524 0
-871.263 -4.35497 0
-869.629 -4.59231 0
-867.999 -4.83009 0
-866.368 -5.06082 0
-864.741 -5.2888 0
-863.116 -5.5171 0
-861.492 -5.73953 0
-859.869 -5.95942 0
-858.246 -6.17211 0
-856.626 -6.38348 0
-855.011 -6.59072 0
-853.393 -6.79347 0
-851.778 -6.99002 0
-850.164 -7.18277 0
-848.551 -7.36965 0
-846.938 -7.55337 0
-845.329 -7.73122 0
-843.718 -7.9034 0
-842.108 -8.07039 0
-840.501 -8.23318 0
-838.893 -8.39151 0
-837.287 -8.54152 0
-835.681 -8.68755 0
-834.075 -8.82615 0
-832.471 -8.95997 0
-830.867 -9.08843 0
-829.263 -9.2109 0
-827.657 -9.32627 0
-826.052 -9.43749 0
-824.449 -9.54409 0
-822.845 -9.64284 0
-821.243 -9.73696 0
-819.64 -9.82404 0
-818.037 -9.90458 0
-816.433 -9.98238 0
-814.83 -10.0521 0
-813.227 -10.1172 0
-811.624 -10.1783 0
-810.019 -10.2318 0
-808.413 -10.2801 0
-806.808 -10.322 0
-805.204 -10.3607 0
-803.598 -10.3917 0
-801.993 -10.4196 0
-800.388 -10.4426 0
-798.781 -10.4565 0
-797.173 -10.4677 0
-795.566 -10.4735 0
-793.957 -10.4743 0
-792.347 -10.47 0
-790.737 -10.4617 0
-789.127 -10.4493 0
-787.516 -10.4315 0
-785.904 -10.409 0
-784.293 -10.3831 0
-782.679 -10.3524 0
-781.068 -10.3165 0
-779.453 -10.2784 0
-777.836 -10.2339 0
-776.22 -10.1878 0
-774.603 -10.1369 0
-772.983 -10.0832 0
-771.364 -10.0253 0
-769.745 -9.96348 0
-768.123 -9.89882 0
-766.502 -9.83075 0
-764.881 -9.76122 0
-763.258 -9.68631 0
-761.634 -9.60823 0
-760.01 -9.53117 0
-758.383 -9.44972 0
-756.755 -9.36534 0
-755.127 -9.27678 0
-753.5 -9.18777 0
-751.871 -9.09567 0
-750.24 -9.00233 0
-748.61 -8.90538 0
-746.977 -8.80751 0
-745.342 -8.70656 0
-743.708 -8.60705 0
-742.074 -8.50522 0
-740.439 -8.40189 0
-738.803 -8.29783 0
-737.165 -8.19135 0
-735.527 -8.08457 0
-733.888 -7.97556 0
-732.247 -7.86429 0
-730.607 -7.75515 0
-728.966 -7.64483 0
-727.324 -7.53322 0
-725.68 -7.41998 0
-724.038 -7.30972 0
-722.395 -7.19577 0
-720.748 -7.08231 0
-719.101 -6.96794 0
-717.456 -6.85489 0
-715.807 -6.74182 0
-714.159 -6.62966 0
-712.51 -6.51609 0
-710.862 -6.40424 0
-709.21 -6.29255 0
-707.561 -6.17995 0
-705.908 -6.06939 0
-704.256 -5.95688 0
-702.605 -5.84739 0
-700.951 -5.73907 0
-699.298 -5.62924 0
-697.645 -5.52186 0
-695.99 -5.41475 0
-694.333 -5.30733 0
-692.678 -5.20462 0
-691.022 -5.10037 0
-689.365 -4.99808 0
-687.707 -4.89534 0
-686.05 -4.79765 0
-684.394 -4.69697 0
-682.736 -4.60024 0
-681.077 -4.50408 0
-679.418 -4.40895 0
-677.76 -4.31531 0
-676.1 -4.22208 0
-674.439 -4.13012 0
-672.778 -4.04103 0
-671.118 -3.95484 0
-669.458 -3.8692 0
-667.797 -3.78308 0
-666.137 -3.70265 0
-664.475 -3.62296 0
-662.814 -3.54293 0
-661.153 -3.46619 0
-659.492 -3.39145 0
-657.829 -3.31805 0
-656.167 -3.24549 0
-654.506 -3.17295 0
-652.843 -3.10599 0
-651.179 -3.03774 0
-649.518 -2.9722 0
-647.856 -2.9095 0
-646.193 -2.84697 0
-644.531 -2.78762 0
-642.868 -2.72768 0
-641.205 -2.67164 0
-639.543 -2.6156 0
-637.881 -2.56357 0
-636.219 -2.512 0
-634.557 -2.46375 0
-632.894 -2.41734 0
-631.231 -2.3686 0
-629.568 -2.32676 0
-627.907 -2.28435 0
-626.246 -2.24264 0
-624.583 -2.20417 0
-622.92 -2.16877 0
-621.258 -2.13096 0
-619.596 -2.09759 0
-617.936 -2.06646 0
-616.274 -2.03664 0
-614.614 -2.00708 0
-612.95 -1.97952 0
-611.289 -1.95503 0
-609.628 -1.93132 0
-607.967 -1.90959 0
-606.307 -1.88845 0
-604.647 -1.8666 0
-602.986 -1.85103 0
-601.326 -1.82978 0
-599.666 -1.81637 0
-598.006 -1.80326 0
-596.348 -1.79023 0
-594.688 -1.77955 0
-593.028 -1.76751 0
-591.369 -1.75974 0
-589.71 -1.75017 0
-588.052 -1.74632 0
-586.393 -1.74052 0
-584.737 -1.73618 0
-583.078 -1.73497 0
-581.419 -1.73068 0
-579.763 -1.73202 0
-578.106 -1.73241 0
-576.45 -1.73577 0
-574.793 -1.73882 0
-573.134 -1.74428 0
-571.478 -1.74746 0
-569.824 -1.7548 0
-568.168 -1.76178 0
-566.512 -1.76777 0
-564.857 -1.77655 0
-563.202 -1.78449 0
-561.546 -1.79543 0
-559.893 -1.80464 0
-558.239 -1.81583 0
-556.584 -1.82983 0
-554.933 -1.84172 0
-553.279 -1.8551 0
-551.624 -1.86929 0
-549.972 -1.88184 0
-548.32 -1.89615 0
-546.666 -1.91077 0
-545.012 -1.92873 0
-543.362 -1.94513 0
-541.71 -1.96073 0
-540.057 -1.97911 0
-538.404 -1.9966 0
-536.752 -2.01341 0
-535.102 -2.03215 0
-533.452 -2.05349 0
-531.8 -2.07154 0
-530.15 -2.09228 0
-528.501 -2.11042 0
-526.849 -2.12993 0
-525.2 -2.1487 0
-523.551 -2.17211 0
-521.901 -2.1915 0
-520.251 -2.21211 0
-518.602 -2.23044 0
-516.952 -2.25006 0
-515.304 -2.27292 0
-513.653 -2.29364 0
-512.005 -2.31314 0
-510.356 -2.33514 0
-508.71 -2.35756 0
-507.061 -2.37678 0
-505.412 -2.39596 0
-503.764 -2.41746 0
-502.118 -2.43811 0
-500.469 -2.45781 0
-498.822 -2.47556 0
-497.176 -2.49607 0
-495.529 -2.51831 0
-493.88 -2.53643 0
-492.234 -2.55569 0
-490.587 -2.57428 0
-488.94 -2.59506 0
-487.294 -2.61541 0
-485.648 -2.62975 0
-484.003 -2.64906 0
-482.357 -2.66886 0
-480.71 -2.69025 0
-479.064 -2.7077 0
-477.418 -2.72945 0
-475.772 -2.74451 0
-474.124 -2.76256 0
-472.478 -2.77809 0
-470.832 -2.79317 0
-469.186 -2.80997 0
-467.541 -2.824 0
-465.894 -2.84244 0
-464.248 -2.85669 0
-462.603 -2.87325 0
-460.956 -2.89036 0
-459.314 -2.90458 0
-457.667 -2.91781 0
-456.021 -2.93344 0
-454.377 -2.94824 0
-452.733 -2.95715 0
-451.086 -2.97247 0
-449.441 -2.98729 0
-447.795 -2.99908 0
-446.151 -3.01084 0
-444.504 -3.02241 0
-442.861 -3.03499 0
-441.216 -3.04513 0
-439.57 -3.05938 0
-437.925 -3.06946 0
-436.28 -3.08034 0
-434.632 -3.0875 0
-432.988 -3.09762 0
-431.343 -3.10753 0
-429.697 -3.11622 0
-428.051 -3.12712 0
-426.406 -3.13351 0
-424.762 -3.143 0
-423.118 -3.1513 0
-421.47 -3.15945 0
-419.824 -3.16602 0
-418.18 -3.17138 0
-416.534 -3.17958 0
-414.887 -3.18394 0
-413.245 -3.19287 0
-411.6 -3.19616 0
-409.952 -3.2014 0
-408.308 -3.20685 0
-406.662 -3.21033 0
-405.017 -3.21666 0
-403.374 -3.22029 0
-401.728 -3.22481 0
-400.084 -3.23191 0
-398.438 -3.23447 0
-396.792 -3.23808 0
-395.148 -3.2421 0
-393.501 -3.24101 0
-391.855 -3.24463 0
-390.209 -3.2499 0
-388.563 -3.25249 0
-386.915 -3.25599 0
-385.269 -3.25714 0
-383.624 -3.25931 0
-381.979 -3.26063 0
-380.334 -3.26319 0
-378.688 -3.26694 0
-377.041 -3.26638 0
-375.394 -3.26592 0
-373.747 -3.26658 0
-372.1 -3.26862 0
-370.456 -3.26678 0
-368.809 -3.26617 0
-367.161 -3.26776 0
-365.514 -3.26999 0
-363.868 -3.26786 0
-362.223 -3.26969 0
-360.577 -3.27027 0
-358.931 -3.2737 0
-357.282 -3.26929 0
-355.636 -3.27036 0
-353.99 -3.27154 0
-352.345 -3.26828 0
-350.7 -3.26739 0
-349.051 -3.26682 0
-347.403 -3.26491 0
-345.756 -3.26306 0
-344.108 -3.26338 0
-342.46 -3.26576 0
-340.812 -3.26655 0
-339.166 -3.26685 0
-337.522 -3.26448 0
-335.873 -3.26241 0
-334.223 -3.26166 0
-332.576 -3.26086 0
-330.928 -3.26276 0
-329.283 -3.26461 0
-327.634 -3.26471 0
-325.986 -3.26561 0
-324.337 -3.26623 0
-322.69 -3.26743 0
-321.044 -3.26758 0
-319.392 -3.27006 0
-317.746 -3.26823 0
-316.1 -3.26499 0
-314.452 -3.26567 0
-312.805 -3.26621 0
-311.159 -3.26605 0
-309.512 -3.26706 0
-307.866 -3.26596 0
-306.217 -3.26672 0
-304.566 -3.27197 0
-302.917 -3.27387 0
-301.269 -3.2729 0
-299.625 -3.27389 0
-297.975 -3.27348 0
-296.328 -3.2721 0
-294.683 -3.27412 0
-293.034 -3.27279 0
-291.387 -3.2719 0
-289.741 -3.27493 0
-288.089 -3.27751 0
-286.439 -3.28102 0
-284.794 -3.28258 0
-283.146 -3.28148 0
-281.5 -3.28588 0
-279.854 -3.28721 0
-278.204 -3.28659 0
-276.557 -3.28961 0
-274.907 -3.29304 0
-273.256 -3.29302 0
-271.61 -3.29771 0
-269.961 -3.30286 0
-268.311 -3.30338 0
-266.664 -3.31006 0
-265.014 -3.31461 0
-263.367 -3.31884 0
-261.717 -3.32485 0
-260.072 -3.32663 0
-258.423 -3.33109 0
-256.775 -3.33585 0
-255.127 -3.33859 0
-253.48 -3.34151 0
-251.832 -3.34708 0
-250.183 -3.35324 0
-248.537 -3.3571 0
-246.889 -3.36311 0
-245.24 -3.37358 0
-243.592 -3.37603 0
-241.944 -3.38343 0
-240.298 -3.39186 0
-238.646 -3.39114 0
-237.001 -3.39888 0
-235.353 -3.4056 0
-233.705 -3.41264 0
-232.058 -3.41909 0
-230.41 -3.42718 0
-228.758 -3.4362 0
-227.109 -3.43942 0
-225.463 -3.4511 0
-223.818 -3.46124 0
-222.17 -3.46131 0
-220.522 -3.47111 0
-218.878 -3.47626 0
-217.23 -3.48726 0
-215.58 -3.49561 0
-213.932 -3.49937 0
-212.286 -3.51094 0
-210.639 -3.51544 0
-208.99 -3.52549 0
-207.342 -3.53394 0
-205.693 -3.54349 0
-204.043 -3.55415 0
-202.396 -3.56217 0
-200.747 -3.56999 0
-199.101 -3.58272 0
-197.454 -3.58489 0
-195.808 -3.59408 0
-194.16 -3.60441 0
-192.51 -3.61623 0
-190.867 -3.62574 0
-189.219 -3.63534 0
-187.575 -3.64238 0
-185.928 -3.65164 0
-184.278 -3.66071 0
-182.634 -3.66694 0
-180.984 -3.67693 0
-179.338 -3.69075 0
-177.691 -3.69838 0
-176.043 -3.71021 0
-174.399 -3.72127 0
-172.754 -3.72816 0
-171.104 -3.74067 0
-169.458 -3.75232 0
-167.813 -3.76527 0
-166.168 -3.77412 0
-164.519 -3.78601 0
-162.871 -3.79325 0
-161.224 -3.80637 0
-159.577 -3.81437 0
-157.93 -3.82333 0
-156.284 -3.83359 0
-154.64 -3.84609 0
-152.991 -3.85492 0
-151.342 -3.86875 0
-149.694 -3.87597 0
-148.048 -3.88903 0
-146.405 -3.89565 0
-144.757 -3.90318 0
-143.111 -3.91619 0
-141.465 -3.92664 0
-139.821 -3.93862 0
-138.174 -3.94663 0
-136.527 -3.95981 0
-134.881 -3.96794 0
-133.238 -3.98028 0
-131.587 -3.98871 0
-129.943 -3.99614 0
-128.295 -4.00561 0
-126.653 -4.01755 0
-125.008 -4.02793 0
-123.36 -4.03927 0
-121.714 -4.04618 0
-120.067 -4.05749 0
-118.421 -4.0668 0
-116.776 -4.07883 0
-115.134 -4.08289 0
-113.489 -4.09301 0
-111.844 -4.10801 0
-110.2 -4.12005 0
-108.553 -4.12736 0
-106.906 -4.13779 0
-105.263 -4.1435 0
-103.619 -4.1558 0
-101.972 -4.16733 0
-100.325 -4.17942 0
-98.6771 -4.18907 0
-97.0309 -4.19003 0
-95.3854 -4.20528 0
-93.7408 -4.21199 0
-92.0944 -4.22296 0
-90.4484 -4.23158 0
-88.8032 -4.23558 0
-87.16 -4.2416 0
-85.5161 -4.25169 0
-83.8709 -4.25956 0
-82.2254 -4.26764 0
-80.5828 -4.28041 0
-78.9377 -4.28522 0
-77.2909 -4.29471 0
-75.6432 -4.29922 0
-74.0009 -4.30374 0
-72.3568 -4.31378 0
-70.707 -4.32058 0
-69.0658 -4.32977 0
-67.4237 -4.33203 0
-65.7751 -4.33618 0
-64.1298 -4.34245 0
-62.4879 -4.34722 0
-60.8472 -4.35613 0
-59.2033 -4.36365 0
-57.5543 -4.37098 0
-55.9129 -4.37915 0
-54.2684 -4.38268 0
-52.627 -4.38971 0
-50.979 -4.39398 0
-49.3322 -4.39788 0
-47.6873 -4.40104 0
-46.0429 -4.40671 0
-44.3981 -4.41523 0
-42.7505 -4.42115 0
-41.1079 -4.42258 0
-39.4665 -4.42722 0
-37.8233 -4.42619 0
-36.1785 -4.43398 0
-34.5361 -4.43337 0
-32.8904 -4.43623 0
-31.2461 -4.4388 0
-29.6015 -4.44323 0
-27.9583 -4.44837 0
-26.3101 -4.44805 0
-24.666 -4.45152 0
-23.0237 -4.45117 0
-21.3772 -4.4547 0
-19.7353 -4.4568 0
-18.0926 -4.45609 0
-16.4474 -4.45698 0
-14.8037 -4.46087 0
-13.1598 -4.46212 0
-11.512 -4.46425 0
-9.86478 -4.46418 0
-8.21913 -4.46673 0
-6.57264 -4.46804 0
-4.92758 -4.4725 0
-3.2856 -4.46999 0
-1.64406 -4.46647 0
0 -4.46758 0
-1102.43 101.963 0
-1102.39 93.2286 0
-1102.34 84.6923 0
-1102.26 76.4294 0
-1102.17 68.4658 0
-1102.1 60.7859 0
-1102.02 53.364 0
-1101.92 46.2235 0
-1101.78 39.4148 0
-1101.62 32.9625 0
-1101.45 26.8735 0
-1101.26 21.1488 0
-1101.05 15.7854 0
-1100.83 10.775 0
-1100.58 6.10581 0
-1100.3 1.76463 0
-1100 -2.26468 0
-1099.66 -6.00328 0
-1099.29 -9.46673 0
-1098.88 -12.6746 0
-1098.44 -15.6439 0
-1097.96 -18.3897 0
-1097.45 -20.9264 0
-1096.9 -23.2646 0
-1096.32 -25.4186 0
-1095.71 -27.4015 0
-1095.07 -29.2204 0
-1094.39 -30.8847 0
-1093.69 -32.4023 0
-1092.97 -33.7793 0
-1092.21 -35.0242 0
-1091.44 -36.1413 0
-1090.63 -37.1392 0
-1089.81 -38.0186 0
-1088.96 -38.7854 0
-1088.08 -39.4459 0
-1087.19 -40.0022 0
-1086.26 -40.4601 0
-1085.32 -40.8222 0
-1084.35 -41.0927 0
-1083.36 -41.2747 0
-1082.35 -41.3718 0
-1081.32 -41.3897 0
-1080.26 -41.3322 0
-1079.17 -41.1998 0
-1078.07 -40.9975 0
-1076.94 -40.7306 0
-1075.79 -40.4025 0
-1074.61 -40.0148 0
-1073.42 -39.5722 0
-1072.2 -39.0765 0
-1070.96 -38.5335 0
-1069.7 -37.9441 0
-1068.41 -37.3146 0
-1067.11 -36.6441 0
-1065.78 -35.9385 0
-1064.44 -35.2007 0
-1063.07 -34.4317 0
-1061.69 -33.637 0
-1060.29 -32.8168 0
-1058.87 -31.9766 0
-1057.43 -31.1157 0
-1055.97 -30.2381 0
-1054.5 -29.3466 0
-1053.01 -28.4426 0
-1051.5 -27.5282 0
-1049.98 -26.6049 0
-1048.45 -25.6766 0
-1046.9 -24.7445 0
-1045.33 -23.81 0
-1043.75 -22.8734 0
-1042.16 -21.9384 0
-1040.56 -21.0052 0
-1038.94 -20.0756 0
-1037.32 -19.1512 0
-1035.68 -18.2341 0
-1034.03 -17.3237 0
-1032.37 -16.4237 0
-1030.7 -15.5329 0
-1029.02 -14.6545 0
-1027.34 -13.7871 0
-1025.64 -12.9337 0
-1023.94 -12.0947 0
-1022.22 -11.2712 0
-1020.51 -10.4631 0
-1018.78 -9.67027 0
-1017.05 -8.8962 0
-1015.31 -8.13931 0
-1013.57 -7.40045 0
-1011.82 -6.67797 0
-1010.07 -5.97495 0
-1008.31 -5.29405 0
-1006.55 -4.63156 0
-1004.78 -3.98835 0
-1003.02 -3.36571 0
-1001.24 -2.76447 0
-999.467 -2.18406 0
-997.688 -1.62375 0
-995.908 -1.0857 0
-994.126 -0.569011 0
-992.343 -0.0733483 0
-990.556 0.401286 0
-988.769 0.853095 0
-986.981 1.2841 0
-985.193 1.69359 0
-983.403 2.08252 0
-981.613 2.44936 0
-979.823 2.79551 0
-978.034 3.12135 0
-976.245 3.42616 0
-974.456 3.71039 0
-972.668 3.97372 0
-970.881 4.21795 0
-969.094 4.44197 0
-967.311 4.64678 0
-965.527 4.83232 0
-963.746 4.99904 0
-961.966 5.1465 0
-960.187 5.27587 0
-958.41 5.38746 0
-956.636 5.48257 0
-954.864 5.55902 0
-953.094 5.61839 0
-951.327 5.6629 0
-949.562 5.69056 0
-947.8 5.70355 0
-946.039 5.70044 0
-944.282 5.68312 0
-942.529 5.65144 0
-940.777 5.60445 0
-939.028 5.54578 0
-937.282 5.47437 0
-935.539 5.38896 0
-933.799 5.29357 0
-932.063 5.18552 0
-930.329 5.06626 0
-928.598 4.93668 0
-926.871 4.79603 0
-925.147 4.64598 0
-923.425 4.48628 0
-921.708 4.31918 0
-919.993 4.14136 0
-918.281 3.95889 0
-916.572 3.76744 0
-914.866 3.56852 0
-913.164 3.36487 0
-911.464 3.15321 0
-909.767 2.93631 0
-908.074 2.71228 0
-906.384 2.48542 0
-904.696 2.25427 0
-903.011 2.0185 0
-901.33 1.78012 0
-899.651 1.53784 0
-897.975 1.29265 0
-896.302 1.04582 0
-894.63 0.796595 0
-892.963 0.544811 0
-891.297 0.292699 0
-889.636 0.0379086 0
-887.976 -0.215113 0
-886.318 -0.46934 0
-884.663 -0.723639 0
-883.01 -0.978074 0
-881.361 -1.23205 0
-879.712 -1.48395 0
-878.065 -1.73522 0
-876.422 -1.98518 0
-874.779 -2.23414 0
-873.14 -2.48064 0
-871.502 -2.72305 0
-869.866 -2.96246 0
-868.231 -3.20061 0
-866.599 -3.43472 0
-864.969 -3.66534 0
-863.34 -3.89464 0
-861.712 -4.11868 0
-860.085 -4.33887 0
-858.459 -4.55383 0
-856.836 -4.76732 0
-855.214 -4.97483 0
-853.592 -5.17887 0
-851.973 -5.37724 0
-850.353 -5.57144 0
-848.735 -5.75858 0
-847.118 -5.94282 0
-845.502 -6.12212 0
-843.887 -6.29515 0
-842.273 -6.4637 0
-840.659 -6.62706 0
-839.047 -6.78449 0
-837.436 -6.93664 0
-835.823 -7.0822 0
-834.212 -7.22243 0
-832.602 -7.35666 0
-830.991 -7.48407 0
-829.381 -7.60771 0
-827.77 -7.72335 0
-826.16 -7.83523 0
-824.551 -7.94122 0
-822.942 -8.04079 0
-821.332 -8.13437 0
-819.723 -8.22056 0
-818.115 -8.30399 0
-816.506 -8.37922 0
-814.898 -8.45069 0
-813.289 -8.51595 0
-811.68 -8.57565 0
-810.069 -8.62854 0
-808.459 -8.67578 0
-806.849 -8.71938 0
-805.24 -8.75746 0
-803.629 -8.78856 0
-802.018 -8.81576 0
-800.406 -8.83758 0
-798.794 -8.85168 0
-797.182 -8.86139 0
-795.57 -8.86768 0
-793.956 -8.86775 0
-792.342 -8.86301 0
-790.727 -8.85366 0
-789.112 -8.84053 0
-787.495 -8.82175 0
-785.88 -8.799 0
-784.263 -8.77241 0
-782.647 -8.74094 0
-781.029 -8.70582 0
-779.411 -8.66492 0
-777.791 -8.62011 0
-776.171 -8.57327 0
-774.55 -8.52157 0
-772.928 -8.46644 0
-771.305 -8.40833 0
-769.682 -8.34653 0
-768.058 -8.28125 0
-766.433 -8.21281 0
-764.809 -8.14106 0
-763.183 -8.06584 0
-761.556 -7.98804 0
-759.928 -7.90831 0
-758.3 -7.82609 0
-756.67 -7.74078 0
-755.041 -7.65321 0
-753.41 -7.56263 0
-751.777 -7.46905 0
-750.144 -7.37546 0
-748.511 -7.27767 0
-746.878 -7.1785 0
-745.244 -7.07714 0
-743.609 -6.97735 0
-741.972 -6.87373 0
-740.336 -6.76969 0
-738.698 -6.66402 0
-737.059 -6.55781 0
-735.419 -6.45021 0
-733.778 -6.33999 0
-732.138 -6.22856 0
-730.497 -6.11884 0
-728.856 -6.0073 0
-727.213 -5.89501 0
-725.57 -5.78255 0
-723.926 -5.6692 0
-722.28 -5.55483 0
-720.634 -5.44116 0
-718.989 -5.32582 0
-717.342 -5.21288 0
-715.695 -5.09877 0
-714.047 -4.98523 0
-712.397 -4.87236 0
-710.748 -4.75924 0
-709.098 -4.64626 0
-707.447 -4.53394 0
-705.797 -4.42205 0
-704.146 -4.31077 0
-702.495 -4.20044 0
-700.843 -4.09028 0
-699.19 -3.98039 0
-697.537 -3.87186 0
-695.882 -3.76375 0
-694.229 -3.65699 0
-692.575 -3.55392 0
-690.919 -3.44888 0
-689.263 -3.3455 0
-687.608 -3.24318 0
-685.953 -3.14462 0
-684.297 -3.04474 0
-682.639 -2.9473 0
-680.983 -2.85 0
-679.325 -2.75447 0
-677.666 -2.66099 0
-676.007 -2.56732 0
-674.349 -2.4758 0
-672.692 -2.38614 0
-671.033 -2.29977 0
-669.373 -2.21264 0
-667.715 -2.12936 0
-666.055 -2.04739 0
-664.396 -1.96656 0
-662.736 -1.88672 0
-661.077 -1.8088 0
-659.416 -1.73474 0
-657.756 -1.66124 0
-656.096 -1.58885 0
-654.436 -1.51714 0
-652.774 -1.44799 0
-651.114 -1.38039 0
-649.453 -1.31539 0
-647.793 -1.25117 0
-646.132 -1.18986 0
-644.472 -1.1292 0
-642.811 -1.06971 0
-641.15 -1.0136 0
-639.489 -0.958522 0
-637.829 -0.90728 0
-636.169 -0.855528 0
-634.508 -0.806864 0
-632.848 -0.759208 0
-631.185 -0.711416 0
-629.525 -0.668762 0
-627.865 -0.626758 0
-626.205 -0.586652 0
-624.546 -0.546251 0
-622.885 -0.510125 0
-621.223 -0.474331 0
-619.564 -0.441043 0
-617.904 -0.410456 0
-616.243 -0.381501 0
-614.583 -0.350406 0
-612.924 -0.324177 0
-611.264 -0.298919 0
-609.604 -0.27519 0
-607.945 -0.253329 0
-606.287 -0.233188 0
-604.627 -0.213013 0
-602.968 -0.193808 0
-601.308 -0.176054 0
-599.652 -0.161707 0
-597.993 -0.148382 0
-596.334 -0.135158 0
-594.676 -0.124239 0
-593.019 -0.114383 0
-591.36 -0.105007 0
-589.703 -0.0974685 0
-588.046 -0.0913853 0
-586.39 -0.0871937 0
-584.733 -0.0829341 0
-583.075 -0.080839 0
-581.419 -0.0779437 0
-579.763 -0.0791124 0
-578.107 -0.0816729 0
-576.452 -0.0833827 0
-574.796 -0.0866965 0
-573.14 -0.0923579 0
-571.486 -0.0972733 0
-569.83 -0.103176 0
-568.175 -0.109737 0
-566.519 -0.117874 0
-564.865 -0.124388 0
-563.212 -0.134393 0
-561.558 -0.143912 0
-559.903 -0.154661 0
-558.25 -0.167395 0
-556.598 -0.180327 0
-554.945 -0.192172 0
-553.293 -0.205418 0
-551.639 -0.219859 0
-549.986 -0.23364 0
-548.333 -0.247926 0
-546.682 -0.261406 0
-545.029 -0.280617 0
-543.378 -0.297868 0
-541.725 -0.31301 0
-540.073 -0.33117 0
-538.421 -0.350141 0
-536.771 -0.368161 0
-535.12 -0.386074 0
-533.469 -0.405866 0
-531.819 -0.425305 0
-530.168 -0.44502 0
-528.519 -0.463431 0
-526.869 -0.484515 0
-525.22 -0.50235 0
-523.57 -0.525123 0
-521.921 -0.54664 0
-520.27 -0.565429 0
-518.621 -0.585141 0
-516.972 -0.606061 0
-515.324 -0.626963 0
-513.674 -0.648897 0
-512.026 -0.669786 0
-510.378 -0.691195 0
-508.73 -0.71268 0
-507.08 -0.733946 0
-505.433 -0.753602 0
-503.785 -0.77304 0
-502.137 -0.793342 0
-500.49 -0.813837 0
-498.843 -0.833435 0
-497.195 -0.853997 0
-495.548 -0.87269 0
-493.9 -0.893199 0
-492.253 -0.913669 0
-490.606 -0.931361 0
-488.959 -0.952043 0
-487.311 -0.970835 0
-485.666 -0.989208 0
-484.02 -1.00848 0
-482.375 -1.0281 0
-480.729 -1.04676 0
-479.082 -1.06479 0
-477.434 -1.08563 0
-475.787 -1.10143 0
-474.142 -1.11931 0
-472.495 -1.13643 0
-470.849 -1.1513 0
-469.203 -1.16802 0
-467.557 -1.18337 0
-465.91 -1.1991 0
-464.264 -1.21481 0
-462.619 -1.23341 0
-460.975 -1.24741 0
-459.328 -1.26355 0
-457.682 -1.27705 0
-456.037 -1.29236 0
-454.39 -1.30582 0
-452.745 -1.31764 0
-451.1 -1.33118 0
-449.454 -1.34488 0
-447.808 -1.35904 0
-446.163 -1.37085 0
-444.518 -1.38184 0
-442.873 -1.3939 0
-441.228 -1.40565 0
-439.583 -1.4165 0
-437.935 -1.42915 0
-436.289 -1.43845 0
-434.642 -1.44765 0
-432.997 -1.45563 0
-431.353 -1.46731 0
-429.706 -1.47706 0
-428.06 -1.48489 0
-426.416 -1.493 0
-424.769 -1.50165 0
-423.125 -1.50996 0
-421.479 -1.51795 0
-419.832 -1.52431 0
-418.186 -1.53115 0
-416.541 -1.53976 0
-414.896 -1.5443 0
-413.25 -1.55016 0
-411.604 -1.55626 0
-409.959 -1.56041 0
-408.312 -1.56563 0
-406.669 -1.57007 0
-405.023 -1.57675 0
-403.378 -1.58052 0
-401.733 -1.58548 0
-400.088 -1.58913 0
-398.443 -1.59221 0
-396.798 -1.59512 0
-395.151 -1.59959 0
-393.504 -1.60103 0
-391.858 -1.60313 0
-390.212 -1.60676 0
-388.566 -1.61111 0
-386.919 -1.61267 0
-385.272 -1.61415 0
-383.626 -1.61652 0
-381.981 -1.62009 0
-380.335 -1.62166 0
-378.689 -1.62259 0
-377.041 -1.62062 0
-375.393 -1.62382 0
-373.747 -1.62476 0
-372.102 -1.62585 0
-370.457 -1.62423 0
-368.809 -1.62404 0
-367.163 -1.62436 0
-365.517 -1.6269 0
-363.871 -1.6265 0
-362.223 -1.62701 0
-360.576 -1.62813 0
-358.928 -1.62968 0
-357.282 -1.6266 0
-355.637 -1.62609 0
-353.99 -1.62849 0
-352.342 -1.62637 0
-350.695 -1.62408 0
-349.05 -1.62346 0
-347.401 -1.62249 0
-345.752 -1.6223 0
-344.107 -1.61899 0
-342.459 -1.62216 0
-340.813 -1.62272 0
-339.166 -1.6244 0
-337.52 -1.6225 0
-335.873 -1.61998 0
-334.225 -1.61742 0
-332.578 -1.6202 0
-330.931 -1.6186 0
-329.283 -1.62141 0
-327.634 -1.62155 0
-325.986 -1.62144 0
-324.338 -1.62177 0
-322.692 -1.62393 0
-321.041 -1.6244 0
-319.393 -1.62446 0
-317.746 -1.62377 0
-316.098 -1.62353 0
-314.451 -1.62249 0
-312.803 -1.6243 0
-311.158 -1.6234 0
-309.511 -1.62325 0
-307.864 -1.62402 0
-306.216 -1.62078 0
-304.567 -1.62592 0
-302.919 -1.62849 0
-301.27 -1.62936 0
-299.62 -1.62929 0
-297.973 -1.62987 0
-296.327 -1.62974 0
-294.68 -1.63077 0
-293.035 -1.62854 0
-291.388 -1.63129 0
-289.74 -1.63073 0
-288.092 -1.63468 0
-286.443 -1.63558 0
-284.796 -1.63824 0
-283.148 -1.63809 0
-281.501 -1.64262 0
-279.852 -1.64328 0
-278.206 -1.64546 0
-276.558 -1.64566 0
-274.907 -1.64531 0
-273.261 -1.64918 0
-271.612 -1.65468 0
-269.964 -1.65832 0
-268.316 -1.6601 0
-266.668 -1.6638 0
-265.019 -1.67056 0
-263.374 -1.67419 0
-261.724 -1.67907 0
-260.075 -1.68305 0
-258.428 -1.68686 0
-256.78 -1.69089 0
-255.131 -1.69373 0
-253.484 -1.69835 0
-251.838 -1.70378 0
-250.192 -1.7078 0
-248.544 -1.71205 0
-246.896 -1.71973 0
-245.248 -1.72727 0
-243.599 -1.73507 0
-241.952 -1.74021 0
-240.303 -1.74366 0
-238.653 -1.74855 0
-237.004 -1.75676 0
-235.358 -1.76112 0
-233.712 -1.76838 0
-232.067 -1.77582 0
-230.415 -1.78168 0
-228.767 -1.79035 0
-227.118 -1.79722 0
-225.471 -1.8068 0
-223.822 -1.81542 0
-222.176 -1.81913 0
-220.529 -1.82935 0
-218.881 -1.83586 0
-217.234 -1.84378 0
-215.587 -1.84937 0
-213.942 -1.8562 0
-212.294 -1.86647 0
-210.648 -1.87505 0
-208.999 -1.88038 0
-207.351 -1.89029 0
-205.702 -1.90038 0
-204.055 -1.90881 0
-202.405 -1.91865 0
-200.759 -1.92572 0
-199.11 -1.93692 0
-197.463 -1.94441 0
-195.817 -1.9516 0
-194.171 -1.96179 0
-192.523 -1.97234 0
-190.877 -1.98259 0
-189.229 -1.98999 0
-187.582 -1.99967 0
-185.934 -2.00976 0
-184.288 -2.01574 0
-182.641 -2.02508 0
-180.995 -2.03697 0
-179.349 -2.04623 0
-177.702 -2.05501 0
-176.055 -2.06752 0
-174.408 -2.07861 0
-172.762 -2.08638 0
-171.114 -2.09834 0
-169.467 -2.11339 0
-167.823 -2.12131 0
-166.178 -2.13204 0
-164.529 -2.14074 0
-162.882 -2.15253 0
-161.234 -2.16222 0
-159.585 -2.17043 0
-157.94 -2.18024 0
-156.296 -2.19205 0
-154.65 -2.20151 0
-153.002 -2.21323 0
-151.356 -2.22242 0
-149.707 -2.23259 0
-148.056 -2.24541 0
-146.41 -2.25439 0
-144.764 -2.26445 0
-143.12 -2.27187 0
-141.476 -2.28385 0
-139.828 -2.29472 0
-138.182 -2.30637 0
-136.539 -2.3162 0
-134.893 -2.32434 0
-133.247 -2.33692 0
-131.599 -2.34724 0
-129.955 -2.35469 0
-128.31 -2.36345 0
-126.665 -2.37548 0
-125.02 -2.38667 0
-123.374 -2.39703 0
-121.726 -2.40523 0
-120.08 -2.41507 0
-118.434 -2.42686 0
-116.788 -2.43522 0
-115.141 -2.44482 0
-113.499 -2.45383 0
-111.852 -2.46623 0
-110.206 -2.47721 0
-108.563 -2.48687 0
-106.916 -2.49713 0
-105.271 -2.50478 0
-103.627 -2.51418 0
-101.982 -2.5255 0
-100.335 -2.53571 0
-98.6895 -2.54489 0
-97.0409 -2.55122 0
-95.3963 -2.56099 0
-93.7504 -2.57209 0
-92.1045 -2.57854 0
-90.4588 -2.58853 0
-88.8137 -2.59485 0
-87.17 -2.60386 0
-85.5246 -2.61309 0
-83.881 -2.62177 0
-82.2344 -2.62701 0
-80.5908 -2.63769 0
-78.9451 -2.64441 0
-77.3009 -2.65144 0
-75.6565 -2.65944 0
-74.0119 -2.66368 0
-72.3666 -2.67067 0
-70.7197 -2.68004 0
-69.0724 -2.68564 0
-67.4268 -2.69069 0
-65.7831 -2.69615 0
-64.1404 -2.70348 0
-62.4936 -2.70871 0
-60.8506 -2.71817 0
-59.2054 -2.72327 0
-57.5601 -2.73096 0
-55.917 -2.73704 0
-54.273 -2.74392 0
-52.6271 -2.75151 0
-50.9855 -2.75278 0
-49.3406 -2.75512 0
-47.6966 -2.76166 0
-46.0504 -2.76749 0
-44.4017 -2.77248 0
-42.7569 -2.77939 0
-41.1128 -2.78108 0
-39.4697 -2.78798 0
-37.8268 -2.78771 0
-36.1824 -2.78967 0
-34.5391 -2.79446 0
-32.8924 -2.79617 0
-31.2468 -2.79593 0
-29.6019 -2.80351 0
-27.9594 -2.80623 0
-26.3147 -2.8047 0
-24.6703 -2.81044 0
-23.0234 -2.8129 0
-21.3798 -2.81479 0
-19.7344 -2.81693 0
-18.0906 -2.81677 0
-16.446 -2.81608 0
-14.8019 -2.82074 0
-13.158 -2.82085 0
-11.5112 -2.81972 0
-9.86406 -2.82337 0
-8.21699 -2.82603 0
-6.57212 -2.82838 0
-4.93065 -2.83123 0
-3.28744 -2.82852 0
-1.64321 -2.82754 0
0 -2.82848 0
-1111.46 102.43 0
-1111.04 93.5308 0
-1110.74 85.019 0
-1110.41 76.7744 0
-1110.06 68.8043 0
-1109.7 61.1105 0
-1109.32 53.7055 0
-1108.91 46.5993 0
-1108.46 39.8163 0
-1107.97 33.3784 0
-1107.45 27.2983 0
-1106.92 21.5838 0
-1106.36 16.2305 0
-1105.8 11.2317 0
-1105.22 6.57658 0
-1104.62 2.25183 0
-1104.01 -1.76079 0
-1103.39 -5.47797 0
-1102.74 -8.91893 0
-1102.08 -12.1022 0
-1101.4 -15.0471 0
-1100.7 -17.7676 0
-1099.97 -20.2771 0
-1099.23 -22.5917 0
-1098.46 -24.7201 0
-1097.68 -26.6789 0
-1096.87 -28.474 0
-1096.05 -30.1156 0
-1095.2 -31.6106 0
-1094.33 -32.9663 0
-1093.45 -34.1898 0
-1092.54 -35.2878 0
-1091.62 -36.2632 0
-1090.68 -37.1229 0
-1089.72 -37.8686 0
-1088.73 -38.5084 0
-1087.74 -39.044 0
-1086.72 -39.481 0
-1085.68 -39.8227 0
-1084.62 -40.0724 0
-1083.55 -40.2334 0
-1082.45 -40.3095 0
-1081.34 -40.3065 0
-1080.2 -40.2281 0
-1079.05 -40.0736 0
-1077.88 -39.8509 0
-1076.68 -39.5636 0
-1075.47 -39.2138 0
-1074.24 -38.8055 0
-1072.99 -38.3418 0
-1071.72 -37.8262 0
-1070.43 -37.2634 0
-1069.13 -36.6551 0
-1067.8 -36.0048 0
-1066.46 -35.3155 0
-1065.1 -34.5913 0
-1063.72 -33.835 0
-1062.33 -33.0483 0
-1060.92 -32.2352 0
-1059.49 -31.3976 0
-1058.05 -30.5399 0
-1056.59 -29.6633 0
-1055.12 -28.7698 0
-1053.63 -27.8625 0
-1052.13 -26.9437 0
-1050.61 -26.0138 0
-1049.09 -25.077 0
-1047.54 -24.1353 0
-1045.99 -23.1891 0
-1044.42 -22.242 0
-1042.84 -21.2927 0
-1041.25 -20.3468 0
-1039.65 -19.4012 0
-1038.04 -18.4603 0
-1036.42 -17.5262 0
-1034.78 -16.5977 0
-1033.14 -15.6783 0
-1031.49 -14.7679 0
-1029.83 -13.8681 0
-1028.17 -12.9814 0
-1026.49 -12.106 0
-1024.81 -11.2456 0
-1023.12 -10.3988 0
-1021.42 -9.56715 0
-1019.72 -8.75317 0
-1018.01 -7.95387 0
-1016.3 -7.17369 0
-1014.58 -6.41032 0
-1012.85 -5.66657 0
-1011.12 -4.93968 0
-1009.39 -4.23424 0
-1007.65 -3.54838 0
-1005.91 -2.88083 0
-1004.16 -2.23431 0
-1002.41 -1.60867 0
-1000.66 -1.0049 0
-998.903 -0.421138 0
-997.145 0.140712 0
-995.385 0.68151 0