<?xml version="1.0"?>
<VTKFile type="StructuredGrid"  version="0.1" byte_order="LittleEndian" compressor="vtkZLibDataCompressor">
  <StructuredGrid WholeExtent="0 700 0 30 0 0">
    <Piece Extent="0 700 0 30 0 0">
      <PointData Vectors="Velocity">
        <DataArray type="Float32" Name="Velocity" NumberOfComponents="3" format="ascii">
-1092.46 69.9608 0
-1092.63 62.9125 0
-1092.87 56.0438 0
-1093.14 49.4713 0
-1093.39 43.2286 0
-1093.58 37.2521 0
-1093.78 31.4856 0
-1094.01 25.9929 0
-1094.26 20.8562 0
-1094.49 16.1019 0
-1094.7 11.7283 0
-1094.88 7.7278 0
-1095.03 4.08938 0
-1095.13 0.798401 0
-1095.18 -2.16353 0
-1095.17 -4.81732 0
-1095.09 -7.18458 0
-1094.95 -9.28764 0
-1094.74 -11.1481 0
-1094.45 -12.7857 0
-1094.11 -14.2192 0
-1093.69 -15.4672 0
-1093.22 -16.5444 0
-1092.68 -17.4659 0
-1092.09 -18.2457 0
-1091.44 -18.8953 0
-1090.75 -19.4259 0
-1090.01 -19.8477 0
-1089.22 -20.1689 0
-1088.39 -20.3979 0
-1087.53 -20.5416 0
-1086.62 -20.6068 0
-1085.68 -20.5993 0
-1084.7 -20.5243 0
-1083.7 -20.3873 0
-1082.65 -20.1921 0
-1081.58 -19.9439 0
-1080.48 -19.6468 0
-1079.34 -19.3036 0
-1078.18 -18.9194 0
-1076.98 -18.4974 0
-1075.76 -18.0413 0
-1074.51 -17.554 0
-1073.24 -17.039 0
-1071.93 -16.4997 0
-1070.6 -15.9387 0
-1069.25 -15.3587 0
-1067.87 -14.7632 0
-1066.47 -14.1557 0
-1065.04 -13.5369 0
-1063.59 -12.9107 0
-1062.12 -12.2794 0
-1060.63 -11.6446 0
-1059.12 -11.0088 0
-1057.59 -10.3736 0
-1056.04 -9.74125 0
-1054.48 -9.11421 0
-1052.89 -8.49313 0
-1051.3 -7.87993 0
-1049.68 -7.27655 0
-1048.06 -6.68404 0
-1046.42 -6.10336 0
-1044.77 -5.53533 0
-1043.1 -4.98119 0
-1041.43 -4.44271 0
-1039.74 -3.92033 0
-1038.05 -3.41481 0
-1036.34 -2.92577 0
-1034.63 -2.45588 0
-1032.91 -2.00393 0
-1031.18 -1.57115 0
-1029.45 -1.15751 0
-1027.71 -0.764163 0
-1025.97 -0.390855 0
-1024.22 -0.0372971 0
-1022.47 0.296434 0
-1020.71 0.609672 0
-1018.96 0.901817 0
-1017.2 1.17403 0
-1015.43 1.42599 0
-1013.67 1.65801 0
-1011.9 1.86932 0
-1010.14 2.06059 0
-1008.37 2.23291 0
-1006.6 2.38584 0
-1004.84 2.52041 0
-1003.07 2.63628 0
-1001.31 2.73349 0
-999.545 2.81251 0
-997.784 2.8756 0
-996.025 2.9211 0
-994.269 2.9502 0
-992.515 2.96295 0
-990.763 2.95982 0
-989.014 2.9433 0
-987.268 2.91197 0
-985.526 2.86609 0
-983.786 2.80742 0
-982.051 2.73536 0
-980.32 2.65106 0
-978.59 2.55617 0
-976.866 2.44923 0
-975.145 2.33241 0
-973.428 2.20607 0
-971.715 2.07057 0
-970.006 1.92531 0
-968.301 1.77281 0
-966.6 1.61234 0
-964.903 1.44537 0
-963.211 1.2721 0
-961.523 1.09256 0
-959.838 0.908599 0
-958.158 0.719068 0
-956.481 0.525004 0
-954.808 0.327848 0
-953.14 0.127552 0
-951.475 -0.0763052 0
-949.814 -0.281106 0
-948.157 -0.487641 0
-946.504 -0.69569 0
-944.854 -0.904812 0
-943.207 -1.11511 0
-941.563 -1.32471 0
-939.923 -1.53371 0
-938.286 -1.74209 0
-936.653 -1.94797 0
-935.021 -2.15313 0
-933.393 -2.35628 0
-931.767 -2.55767 0
-930.144 -2.7556 0
-928.524 -2.95146 0
-926.907 -3.1439 0
-925.292 -3.33139 0
-923.678 -3.517 0
-922.066 -3.69881 0
-920.458 -3.87592 0
-918.85 -4.0483 0
-917.244 -4.21803 0
-915.639 -4.38246 0
-914.037 -4.54043 0
-912.436 -4.69517 0
-910.836 -4.84409 0
-909.236 -4.98872 0
-907.638 -5.12744 0
-906.042 -5.25983 0
-904.445 -5.38804 0
-902.851 -5.51083 0
-901.256 -5.62803 0
-899.661 -5.73999 0
-898.068 -5.84632 0
-896.475 -5.94614 0
-894.883 -6.04085 0
-893.29 -6.13019 0
-891.697 -6.21328 0
-890.105 -6.29145 0
-888.513 -6.36385 0
-886.921 -6.43081 0
-885.329 -6.49248 0
-883.734 -6.5489 0
-882.141 -6.59956 0
-880.548 -6.64479 0
-878.953 -6.68491 0
-877.358 -6.72134 0
-875.763 -6.75138 0
-874.167 -6.77704 0
-872.571 -6.79758 0
-870.974 -6.81596 0
-869.377 -6.8269 0
-867.779 -6.83472 0
-866.179 -6.83858 0
-864.579 -6.8387 0
-862.978 -6.83446 0
-861.376 -6.82627 0
-859.773 -6.81436 0
-858.17 -6.7992 0
-856.565 -6.78071 0
-854.959 -6.75864 0
-853.352 -6.73343 0
-851.744 -6.70617 0
-850.136 -6.67579 0
-848.527 -6.64328 0
-846.916 -6.60629 0
-845.305 -6.56784 0
-843.692 -6.52797 0
-842.079 -6.48445 0
-840.464 -6.43946 0
-838.847 -6.39429 0
-837.23 -6.34688 0
-835.612 -6.29677 0
-833.993 -6.24664 0
-832.373 -6.19371 0
-830.753 -6.1412 0
-829.131 -6.08787 0
-827.509 -6.03276 0
-825.885 -5.97614 0
-824.26 -5.92018 0
-822.635 -5.8632 0
-821.008 -5.80598 0
-819.381 -5.7486 0
-817.753 -5.69106 0
-816.124 -5.63347 0
-814.493 -5.5772 0
-812.863 -5.51849 0
-811.232 -5.4622 0
-809.599 -5.40593 0
-807.966 -5.34801 0
-806.332 -5.29272 0
-804.698 -5.23822 0
-803.062 -5.18389 0
-801.427 -5.12954 0
-799.791 -5.07663 0
-798.154 -5.02531 0
-796.516 -4.97378 0
-794.878 -4.92419 0
-793.24 -4.87576 0
-791.601 -4.82798 0
-789.961 -4.78168 0
-788.321 -4.73723 0
-786.68 -4.69338 0
-785.039 -4.65102 0
-783.398 -4.61054 0
-781.756 -4.57007 0
-780.113 -4.53195 0
-778.473 -4.49371 0
-776.831 -4.45861 0
-775.189 -4.42591 0
-773.546 -4.39068 0
-771.904 -4.36139 0
-770.261 -4.33183 0
-768.617 -4.30268 0
-766.974 -4.27847 0
-765.331 -4.25226 0
-763.688 -4.2298 0
-762.045 -4.20799 0
-760.401 -4.18774 0
-758.757 -4.16913 0
-757.115 -4.15239 0
-755.472 -4.13794 0
-753.829 -4.12301 0
-752.186 -4.11045 0
-750.542 -4.09846 0
-748.899 -4.08921 0
-747.255 -4.08157 0
-745.612 -4.07412 0
-743.969 -4.06976 0
-742.327 -4.06546 0
-740.685 -4.06205 0
-739.043 -4.06082 0
-737.401 -4.05994 0
-735.759 -4.06027 0
-734.118 -4.06249 0
-732.477 -4.06702 0
-730.835 -4.07214 0
-729.195 -4.07806 0
-727.554 -4.08395 0
-725.914 -4.09348 0
-724.274 -4.10011 0
-722.633 -4.11062 0
-720.994 -4.12241 0
-719.354 -4.13389 0
-717.716 -4.14622 0
-716.077 -4.16048 0
-714.439 -4.17251 0
-712.801 -4.18732 0
-711.164 -4.20276 0
-709.526 -4.21992 0
-707.889 -4.23556 0
-706.251 -4.25317 0
-704.615 -4.26999 0
-702.979 -4.2878 0
-701.343 -4.3066 0
-699.705 -4.32637 0
-698.07 -4.34536 0
-696.434 -4.36541 0
-694.798 -4.38678 0
-693.164 -4.40737 0
-691.53 -4.42875 0
-689.897 -4.45064 0
-688.262 -4.47046 0
-686.628 -4.49341 0
-684.996 -4.51397 0
-683.363 -4.53494 0
-681.728 -4.55827 0
-680.095 -4.58078 0
-678.463 -4.60273 0
-676.832 -4.62733 0
-675.201 -4.64783 0
-673.569 -4.66846 0
-671.939 -4.68987 0
-670.307 -4.71093 0
-668.675 -4.73511 0
-667.044 -4.75474 0
-665.414 -4.77462 0
-663.784 -4.79664 0
-662.154 -4.81668 0
-660.525 -4.83508 0
-658.895 -4.85673 0
-657.266 -4.87595 0
-655.637 -4.89558 0
-654.006 -4.91371 0
-652.377 -4.9312 0
-650.749 -4.94899 0
-649.12 -4.96786 0
-647.491 -4.98384 0
-645.862 -5.00297 0
-644.235 -5.01962 0
-642.608 -5.0347 0
-640.98 -5.04961 0
-639.351 -5.06363 0
-637.722 -5.07958 0
-636.093 -5.09171 0
-634.465 -5.10639 0
-632.837 -5.11946 0
-631.208 -5.13098 0
-629.58 -5.14498 0
-627.952 -5.15649 0
-626.323 -5.16773 0
-624.696 -5.17819 0
-623.069 -5.1866 0
-621.442 -5.19593 0
-619.815 -5.20501 0
-618.188 -5.21313 0
-616.56 -5.21955 0
-614.932 -5.22736 0
-613.305 -5.23383 0
-611.676 -5.23731 0
-610.048 -5.24422 0
-608.421 -5.2496 0
-606.792 -5.25347 0
-605.164 -5.25677 0
-603.535 -5.26082 0
-601.908 -5.26393 0
-600.28 -5.26571 0
-598.653 -5.26771 0
-597.025 -5.26833 0
-595.396 -5.26912 0
-593.767 -5.27096 0
-592.139 -5.27112 0
-590.51 -5.27219 0
-588.882 -5.27251 0
-587.254 -5.27086 0
-585.625 -5.26991 0
-583.996 -5.26778 0
-582.368 -5.26562 0
-580.738 -5.26158 0
-579.109 -5.25925 0
-577.481 -5.25684 0
-575.852 -5.25213 0
-574.223 -5.24797 0
-572.593 -5.246 0
-570.964 -5.24142 0
-569.336 -5.2371 0
-567.707 -5.23168 0
-566.077 -5.2276 0
-564.447 -5.2221 0
-562.818 -5.21512 0
-561.187 -5.20831 0
-559.556 -5.20378 0
-557.927 -5.19827 0
-556.296 -5.19006 0
-554.667 -5.18348 0
-553.037 -5.17666 0
-551.407 -5.16901 0
-549.777 -5.16152 0
-548.146 -5.15399 0
-546.515 -5.14739 0
-544.885 -5.13899 0
-543.255 -5.1315 0
-541.625 -5.12385 0
-539.994 -5.11589 0
-538.363 -5.10735 0
-536.731 -5.09985 0
-535.099 -5.09198 0
-533.469 -5.08311 0
-531.839 -5.07589 0
-530.206 -5.06653 0
-528.574 -5.05944 0
-526.944 -5.05199 0
-525.312 -5.04222 0
-523.68 -5.03401 0
-522.049 -5.02646 0
-520.418 -5.01784 0
-518.788 -5.01057 0
-517.157 -5.00082 0
-515.525 -4.99294 0
-513.892 -4.98304 0
-512.259 -4.97621 0
-510.628 -4.9676 0
-508.996 -4.9603 0
-507.364 -4.95387 0
-505.732 -4.94549 0
-504.101 -4.93873 0
-502.467 -4.93002 0
-500.836 -4.92197 0
-499.203 -4.91421 0
-497.57 -4.90591 0
-495.937 -4.89768 0
-494.305 -4.88979 0
-492.671 -4.8832 0
-491.04 -4.87802 0
-489.407 -4.86867 0
-487.775 -4.86213 0
-486.14 -4.85401 0
-484.508 -4.84867 0
-482.874 -4.84212 0
-481.242 -4.83461 0
-479.61 -4.83255 0
-477.978 -4.82536 0
-476.346 -4.81958 0
-474.712 -4.81326 0
-473.08 -4.81048 0
-471.447 -4.80342 0
-469.816 -4.79787 0
-468.183 -4.79362 0
-466.551 -4.78743 0
-464.916 -4.78191 0
-463.283 -4.77732 0
-461.652 -4.77354 0
-460.019 -4.77108 0
-458.386 -4.76612 0
-456.754 -4.76261 0
-455.12 -4.75907 0
-453.487 -4.755 0
-451.855 -4.75004 0
-450.223 -4.7487 0
-448.59 -4.74431 0
-446.958 -4.74 0
-445.326 -4.73712 0
-443.694 -4.73558 0
-442.062 -4.73185 0
-440.429 -4.73027 0
-438.796 -4.7287 0
-437.165 -4.72539 0
-435.531 -4.7226 0
-433.899 -4.71885 0
-432.266 -4.7164 0
-430.635 -4.71465 0
-429.001 -4.71294 0
-427.368 -4.71036 0
-425.735 -4.71133 0
-424.104 -4.71008 0
-422.47 -4.7091 0
-420.839 -4.70675 0
-419.207 -4.70357 0
-417.574 -4.70201 0
-415.942 -4.70157 0
-414.31 -4.70018 0
-412.676 -4.69914 0
-411.045 -4.69815 0
-409.411 -4.69822 0
-407.78 -4.69815 0
-406.149 -4.69636 0
-404.518 -4.6956 0
-402.886 -4.69616 0
-401.254 -4.69427 0
-399.622 -4.6935 0
-397.991 -4.69239 0
-396.358 -4.69198 0
-394.726 -4.69139 0
-393.095 -4.69155 0
-391.462 -4.69133 0
-389.833 -4.69112 0
-388.2 -4.69002 0
-386.567 -4.68981 0
-384.934 -4.68902 0
-383.303 -4.68838 0
-381.672 -4.68763 0
-380.042 -4.68515 0
-378.411 -4.68537 0
-376.78 -4.68492 0
-375.148 -4.68549 0
-373.517 -4.68503 0
-371.883 -4.68473 0
-370.252 -4.68338 0
-368.621 -4.68352 0
-366.988 -4.68408 0
-365.358 -4.68371 0
-363.726 -4.68463 0
-362.095 -4.68453 0
-360.464 -4.68448 0
-358.833 -4.68536 0
-357.202 -4.68006 0
-355.57 -4.68204 0
-353.939 -4.68206 0
-352.31 -4.68052 0
-350.676 -4.68175 0
-349.046 -4.68099 0
-347.414 -4.67838 0
-345.782 -4.67742 0
-344.152 -4.67632 0
-342.521 -4.67631 0
-340.891 -4.6743 0
-339.259 -4.67503 0
-337.629 -4.6729 0
-335.997 -4.673 0
-334.367 -4.67286 0
-332.735 -4.67181 0
-331.103 -4.67101 0
-329.473 -4.67176 0
-327.842 -4.6695 0
-326.212 -4.6694 0
-324.581 -4.66915 0
-322.949 -4.66623 0
-321.318 -4.66712 0
-319.686 -4.66509 0
-318.055 -4.66557 0
-316.423 -4.66566 0
-314.793 -4.66124 0
-313.163 -4.6619 0
-311.533 -4.65891 0
-309.902 -4.65852 0
-308.271 -4.65763 0
-306.64 -4.65473 0
-305.01 -4.65402 0
-303.379 -4.65294 0
-301.748 -4.6505 0
-300.117 -4.64819 0
-298.484 -4.64823 0
-296.853 -4.64498 0
-295.222 -4.64417 0
-293.59 -4.64319 0
-291.961 -4.64225 0
-290.329 -4.63662 0
-288.697 -4.63503 0
-287.066 -4.63245 0
-285.436 -4.62846 0
-283.806 -4.6276 0
-282.173 -4.62566 0
-280.539 -4.62357 0
-278.91 -4.62415 0
-277.279 -4.61956 0
-275.65 -4.61823 0
-274.018 -4.6166 0
-272.387 -4.61628 0
-270.758 -4.61145 0
-269.128 -4.60877 0
-267.497 -4.60468 0
-265.865 -4.60422 0
-264.234 -4.60233 0
-262.604 -4.59909 0
-260.972 -4.59655 0
-259.339 -4.59441 0
-257.708 -4.59085 0
-256.079 -4.58885 0
-254.448 -4.58593 0
-252.815 -4.58364 0
-251.184 -4.58164 0
-249.552 -4.57952 0
-247.924 -4.57651 0
-246.29 -4.57387 0
-244.66 -4.57021 0
-243.028 -4.56661 0
-241.395 -4.56675 0
-239.766 -4.56339 0
-238.136 -4.56113 0
-236.504 -4.56043 0
-234.874 -4.55777 0
-233.242 -4.55602 0
-231.611 -4.55203 0
-229.981 -4.54949 0
-228.348 -4.54597 0
-226.717 -4.54147 0
-225.085 -4.54101 0
-223.454 -4.53944 0
-221.822 -4.53795 0
-220.193 -4.5342 0
-218.562 -4.53285 0
-216.929 -4.52966 0
-215.298 -4.52602 0
-213.668 -4.52178 0
-212.039 -4.52242 0
-210.408 -4.51893 0
-208.777 -4.51411 0
-207.145 -4.51276 0
-205.514 -4.51119 0
-203.884 -4.5088 0
-202.253 -4.50721 0
-200.62 -4.50552 0
-198.99 -4.50151 0
-197.358 -4.49888 0
-195.727 -4.49491 0
-194.096 -4.49205 0
-192.462 -4.49116 0
-190.83 -4.48872 0
-189.197 -4.48709 0
-187.566 -4.48359 0
-185.937 -4.48331 0
-184.306 -4.48068 0
-182.673 -4.47912 0
-181.039 -4.47673 0
-179.407 -4.47342 0
-177.778 -4.47172 0
-176.146 -4.46866 0
-174.516 -4.46803 0
-172.884 -4.46456 0
-171.255 -4.46285 0
-169.625 -4.46152 0
-167.995 -4.46016 0
-166.362 -4.45621 0
-164.731 -4.45417 0
-163.1 -4.45329 0
-161.467 -4.45045 0
-159.836 -4.44634 0
-158.204 -4.44687 0
-156.574 -4.44283 0
-154.944 -4.44278 0
-153.313 -4.44292 0
-151.683 -4.44184 0
-150.051 -4.43988 0
-148.419 -4.43948 0
-146.788 -4.43686 0
-145.157 -4.43419 0
-143.525 -4.43374 0
-141.896 -4.4312 0
-140.262 -4.42911 0
-138.63 -4.42871 0
-136.999 -4.4263 0
-135.368 -4.4262 0
-133.738 -4.42687 0
-132.105 -4.42297 0
-130.475 -4.42224 0
-128.844 -4.41962 0
-127.212 -4.42059 0
-125.581 -4.41792 0
-123.949 -4.41804 0
-122.319 -4.41725 0
-120.688 -4.41616 0
-119.057 -4.41436 0
-117.426 -4.41373 0
-115.794 -4.41273 0
-114.164 -4.41119 0
-112.532 -4.40955 0
-110.898 -4.40805 0
-109.269 -4.41079 0
-107.637 -4.40875 0
-106.006 -4.40862 0
-104.376 -4.40795 0
-102.745 -4.40756 0
-101.115 -4.40642 0
-99.4835 -4.40807 0
-97.8536 -4.40604 0
-96.2199 -4.40562 0
-94.5888 -4.4031 0
-92.9579 -4.40548 0
-91.3281 -4.40418 0
-89.6989 -4.40244 0
-88.0684 -4.4022 0
-86.4349 -4.40162 0
-84.804 -4.40308 0
-83.1736 -4.40231 0
-81.5417 -4.4013 0
-79.9097 -4.4015 0
-78.2787 -4.40101 0
-76.647 -4.40157 0
-75.0161 -4.39902 0
-73.3858 -4.40192 0
-71.7562 -4.40008 0
-70.1249 -4.39979 0
-68.4951 -4.40067 0
-66.8615 -4.39859 0
-65.2322 -4.39977 0
-63.6008 -4.39837 0
-61.9692 -4.39624 0
-60.3374 -4.3969 0
-58.7063 -4.39576 0
-57.0755 -4.39748 0
-55.4446 -4.39555 0
-53.8105 -4.39491 0
-52.1806 -4.39664 0
-50.5492 -4.39759 0
-48.921 -4.3949 0
-47.2918 -4.39503 0
-45.6612 -4.39575 0
-44.0327 -4.3945 0
-42.4013 -4.39309 0
-40.7694 -4.39338 0
-39.1393 -4.3929 0
-37.509 -4.39585 0
-35.8778 -4.39087 0
-34.2457 -4.3901 0
-32.6133 -4.39315 0
-30.9825 -4.39389 0
-29.3523 -4.39147 0
-27.7215 -4.39264 0
-26.0922 -4.39362 0
-24.4607 -4.39354 0
-22.8301 -4.39246 0
-21.1996 -4.39277 0
-19.5678 -4.39264 0
-17.9389 -4.39344 0
-16.3077 -4.39141 0
-14.6795 -4.3918 0
-13.0483 -4.39142 0
-11.4176 -4.39177 0
-9.78655 -4.3908 0
-8.1543 -4.39193 0
-6.52326 -4.39124 0
-4.89164 -4.39273 0
-3.26205 -4.39043 0
-1.63038 -4.39063 0
0 -4.38782 0
-1099.52 70.1732 0
-1099.53 63.0705 0
-1099.53 56.1803 0
-1099.5 49.5951 0
-1099.46 43.342 0
-1099.46 37.3586 0
-1099.45 31.5879 0
-1099.37 26.0925 0
-1099.25 20.9534 0
-1099.1 16.1991 0
-1098.94 11.8306 0
-1098.75 7.84164 0
-1098.54 4.22229 0
-1098.3 0.958384 0
-1098.03 -1.96858 0
-1097.71 -4.58051 0
-1097.36 -6.90087 0
-1096.96 -8.95324 0
-1096.51 -10.761 0
-1096.01 -12.3451 0
-1095.46 -13.7258 0
-1094.87 -14.9215 0
-1094.23 -15.9484 0
-1093.54 -16.822 0
-1092.81 -17.5557 0
-1092.04 -18.1613 0
-1091.23 -18.6504 0
-1090.38 -19.0326 0
-1089.5 -19.3163 0
-1088.58 -19.5092 0
-1087.63 -19.6186 0
-1086.65 -19.6509 0
-1085.64 -19.6115 0
-1084.6 -19.5053 0
-1083.53 -19.3378 0
-1082.44 -19.1136 0
-1081.31 -18.8362 0
-1080.16 -18.5106 0
-1078.98 -18.1399 0
-1077.78 -17.7284 0
-1076.55 -17.2793 0
-1075.3 -16.7969 0
-1074.02 -16.284 0
-1072.71 -15.7437 0
-1071.39 -15.1797 0
-1070.04 -14.5946 0
-1068.67 -13.9912 0
-1067.27 -13.3733 0
-1065.86 -12.7432 0
-1064.42 -12.1035 0
-1062.97 -11.4565 0
-1061.49 -10.8053 0
-1060 -10.1514 0
-1058.49 -9.49716 0
-1056.96 -8.8448 0
-1055.42 -8.19603 0
-1053.86 -7.55257 0
-1052.29 -6.91641 0
-1050.7 -6.28879 0
-1049.09 -5.67187 0
-1047.48 -5.06603 0
-1045.85 -4.47325 0
-1044.21 -3.89362 0
-1042.56 -3.32885 0
-1040.9 -2.78043 0
-1039.24 -2.24825 0
-1037.56 -1.73399 0
-1035.87 -1.23731 0
-1034.18 -0.759621 0
-1032.48 -0.301169 0
-1030.77 0.137723 0
-1029.06 0.557081 0
-1027.34 0.955372 0
-1025.61 1.33334 0
-1023.88 1.69097 0
-1022.15 2.028 0
-1020.42 2.34436 0
-1018.68 2.63936 0
-1016.94 2.91366 0
-1015.2 3.16758 0
-1013.45 3.40071 0
-1011.71 3.61286 0
-1009.96 3.80476 0
-1008.21 3.97741 0
-1006.46 4.13 0
-1004.72 4.26419 0
-1002.97 4.37916 0
-1001.22 4.47504 0
-999.477 4.55339 0
-997.733 4.61438 0
-995.991 4.65766 0
-994.25 4.68471 0
-992.511 4.69508 0
-990.775 4.69007 0
-989.04 4.67025 0
-987.309 4.63576 0
-985.579 4.58742 0
-983.853 4.52563 0
-982.129 4.45001 0
-980.409 4.36234 0
-978.692 4.26374 0
-976.978 4.15411 0
-975.267 4.03375 0
-973.559 3.90366 0
-971.855 3.76419 0
-970.154 3.61532 0
-968.457 3.45861 0
-966.763 3.29462 0
-965.073 3.12399 0
-963.386 2.94657 0
-961.703 2.76387 0
-960.024 2.57531 0
-958.348 2.38267 0
-956.675 2.18491 0
-955.006 1.98408 0
-953.341 1.78027 0
-951.678 1.57294 0
-950.019 1.36415 0
-948.363 1.1543 0
-946.711 0.943124 0
-945.061 0.73064 0
-943.414 0.517886 0
-941.77 0.305179 0
-940.129 0.0928494 0
-938.491 -0.117998 0
-936.856 -0.327049 0
-935.224 -0.535131 0
-933.593 -0.740674 0
-931.965 -0.944018 0
-930.34 -1.14508 0
-928.717 -1.34319 0
-927.096 -1.53709 0
-925.477 -1.72714 0
-923.859 -1.91503 0
-922.244 -2.09863 0
-920.631 -2.27702 0
-919.019 -2.45209 0
-917.409 -2.62264 0
-915.8 -2.78834 0
-914.192 -2.94819 0
-912.586 -3.10396 0
-910.981 -3.25374 0
-909.376 -3.39905 0
-907.773 -3.53854 0
-906.17 -3.67322 0
-904.569 -3.80171 0
-902.968 -3.92504 0
-901.368 -4.0429 0
-899.769 -4.15564 0
-898.17 -4.26163 0
-896.571 -4.36243 0
-894.973 -4.45739 0
-893.375 -4.54596 0
-891.777 -4.6303 0
-890.18 -4.70834 0
-888.582 -4.78086 0
-886.984 -4.84711 0
-885.386 -4.90838 0
-883.787 -4.96431 0
-882.188 -5.01556 0
-880.59 -5.06016 0
-878.991 -5.10013 0
-877.391 -5.13545 0
-875.791 -5.16529 0
-874.191 -5.19089 0
-872.591 -5.21084 0
-870.989 -5.22778 0
-869.387 -5.23844 0
-867.784 -5.24547 0
-866.181 -5.24821 0
-864.577 -5.248 0
-862.971 -5.24237 0
-861.366 -5.234 0
-859.759 -5.22151 0
-858.152 -5.20452 0
-856.544 -5.18562 0
-854.936 -5.16287 0
-853.326 -5.13672 0
-851.716 -5.10827 0
-850.105 -5.07708 0
-848.492 -5.04365 0
-846.879 -5.00643 0
-845.265 -4.96702 0
-843.65 -4.92527 0
-842.035 -4.88036 0
-840.419 -4.83551 0
-838.802 -4.78898 0
-837.183 -4.73975 0
-835.563 -4.6897 0
-833.943 -4.63828 0
-832.321 -4.58525 0
-830.7 -4.53145 0
-829.077 -4.47701 0
-827.453 -4.42077 0
-825.829 -4.3637 0
-824.204 -4.30713 0
-822.578 -4.2495 0
-820.952 -4.19122 0
-819.324 -4.13322 0
-817.696 -4.07455 0
-816.066 -4.01619 0
-814.437 -3.95843 0
-812.806 -3.8999 0
-811.175 -3.8417 0
-809.543 -3.78485 0
-807.91 -3.72736 0
-806.277 -3.67088 0
-804.644 -3.6156 0
-803.009 -3.56026 0
-801.374 -3.50635 0
-799.739 -3.45288 0
-798.103 -3.40009 0
-796.466 -3.34904 0
-794.83 -3.29796 0
-793.192 -3.24944 0
-791.554 -3.20197 0
-789.915 -3.15493 0
-788.277 -3.10892 0
-786.638 -3.06524 0
-784.997 -3.02234 0
-783.358 -2.98181 0
-781.717 -2.94066 0
-780.077 -2.90227 0
-778.437 -2.86447 0
-776.797 -2.82917 0
-775.156 -2.79632 0
-773.515 -2.76138 0
-771.874 -2.73132 0
-770.232 -2.70088 0
-768.591 -2.6733 0
-766.949 -2.64754 0
-765.307 -2.62205 0
-763.666 -2.59934 0
-762.024 -2.57741 0
-760.383 -2.55707 0
-758.74 -2.53878 0
-757.099 -2.52184 0
-755.457 -2.50657 0
-753.815 -2.493 0
-752.173 -2.48062 0
-750.532 -2.46813 0
-748.89 -2.45846 0
-747.247 -2.45094 0
-745.607 -2.44377 0
-743.965 -2.43975 0
-742.324 -2.43513 0
-740.683 -2.43293 0
-739.042 -2.43124 0
-737.401 -2.43132 0
-735.761 -2.43198 0
-734.121 -2.43432 0
-732.481 -2.43809 0
-730.841 -2.44305 0
-729.201 -2.44958 0
-727.561 -2.45617 0
-725.921 -2.46536 0
-724.282 -2.47292 0
-722.643 -2.4831 0
-721.005 -2.4953 0
-719.367 -2.50705 0
-717.729 -2.52038 0
-716.091 -2.53357 0
-714.453 -2.54686 0
-712.816 -2.56125 0
-711.179 -2.57711 0
-709.542 -2.59348 0
-707.905 -2.61043 0
-706.268 -2.62761 0
-704.632 -2.64596 0
-702.997 -2.66368 0
-701.361 -2.68213 0
-699.725 -2.70222 0
-698.088 -2.72272 0
-696.454 -2.7431 0
-694.819 -2.76336 0
-693.185 -2.78528 0
-691.551 -2.80706 0
-689.917 -2.82823 0
-688.283 -2.84879 0
-686.65 -2.87125 0
-685.017 -2.89343 0
-683.385 -2.91416 0
-681.751 -2.9372 0
-680.118 -2.96052 0
-678.486 -2.9835 0
-676.854 -3.00613 0
-675.221 -3.02788 0
-673.59 -3.04914 0
-671.96 -3.07013 0
-670.328 -3.09166 0
-668.696 -3.11432 0
-667.065 -3.13622 0
-665.435 -3.15674 0
-663.805 -3.17818 0
-662.175 -3.19851 0
-660.545 -3.21804 0
-658.915 -3.23891 0
-657.285 -3.25818 0
-655.654 -3.27805 0
-654.025 -3.29604 0
-652.395 -3.31404 0
-650.766 -3.33228 0
-649.137 -3.3503 0
-647.508 -3.36842 0
-645.88 -3.38556 0
-644.251 -3.40277 0
-642.622 -3.41775 0
-640.994 -3.43231 0
-639.365 -3.44803 0
-637.737 -3.46212 0
-636.107 -3.47556 0
-634.478 -3.48954 0
-632.849 -3.50288 0
-631.221 -3.51496 0
-629.593 -3.52776 0
-627.964 -3.54016 0
-626.335 -3.55177 0
-624.706 -3.56217 0
-623.079 -3.57142 0
-621.451 -3.57989 0
-619.824 -3.588 0
-618.196 -3.59685 0
-616.568 -3.60328 0
-614.939 -3.61048 0
-613.31 -3.61699 0
-611.682 -3.62166 0
-610.053 -3.62844 0
-608.424 -3.63264 0
-606.796 -3.63737 0
-605.168 -3.641 0
-603.54 -3.64381 0
-601.912 -3.648 0
-600.283 -3.64962 0
-598.654 -3.65034 0
-597.026 -3.65212 0
-595.397 -3.65239 0
-593.768 -3.65364 0
-592.14 -3.65427 0
-590.51 -3.65585 0
-588.882 -3.65577 0
-587.253 -3.65461 0
-585.624 -3.65249 0
-583.994 -3.65019 0
-582.364 -3.64787 0
-580.736 -3.64547 0
-579.108 -3.64249 0
-577.478 -3.63944 0
-575.848 -3.63545 0
-574.219 -3.63153 0
-572.59 -3.62792 0
-570.96 -3.62488 0
-569.331 -3.62122 0
-567.702 -3.61386 0
-566.072 -3.60977 0
-564.441 -3.60333 0
-562.811 -3.59815 0
-561.181 -3.59053 0
-559.551 -3.58557 0
-557.921 -3.57955 0
-556.289 -3.57204 0
-554.66 -3.56599 0
-553.03 -3.55879 0
-551.4 -3.55115 0
-549.769 -3.54277 0
-548.139 -3.53559 0
-546.509 -3.52831 0
-544.877 -3.52073 0
-543.247 -3.51274 0
-541.616 -3.50479 0
-539.985 -3.49661 0
-538.354 -3.48803 0
-536.723 -3.48124 0
-535.091 -3.472 0
-533.461 -3.46435 0
-531.829 -3.4561 0
-530.198 -3.44844 0
-528.567 -3.44034 0
-526.935 -3.4321 0
-525.303 -3.42372 0
-523.672 -3.4146 0
-522.041 -3.40691 0
-520.41 -3.39913 0
-518.779 -3.39138 0
-517.147 -3.38124 0
-515.515 -3.37274 0
-513.883 -3.36246 0
-512.251 -3.35604 0
-510.619 -3.34849 0
-508.987 -3.3404 0
-507.355 -3.33296 0
-505.723 -3.32567 0
-504.091 -3.31751 0
-502.459 -3.30948 0
-500.827 -3.30156 0
-499.195 -3.2936 0
-497.562 -3.28507 0
-495.929 -3.27657 0
-494.297 -3.26942 0
-492.666 -3.26351 0
-491.033 -3.2571 0
-489.399 -3.24874 0
-487.766 -3.24163 0
-486.134 -3.23399 0
-484.503 -3.22856 0
-482.869 -3.22089 0
-481.236 -3.21617 0
-479.604 -3.21196 0
-477.972 -3.20599 0
-476.339 -3.19958 0
-474.707 -3.19329 0
-473.075 -3.18947 0
-471.442 -3.18325 0
-469.811 -3.1777 0
-468.179 -3.17234 0
-466.545 -3.16625 0
-464.912 -3.16173 0
-463.279 -3.15698 0
-461.648 -3.15323 0
-460.015 -3.14905 0
-458.382 -3.14551 0
-456.748 -3.14145 0
-455.116 -3.13754 0
-453.483 -3.13413 0
-451.851 -3.1298 0
-450.22 -3.12785 0
-448.587 -3.12342 0
-446.955 -3.12017 0
-445.322 -3.11577 0
-443.691 -3.11494 0
-442.057 -3.1118 0
-440.426 -3.10938 0
-438.794 -3.10687 0
-437.162 -3.10426 0
-435.529 -3.10169 0
-433.897 -3.09955 0
-432.265 -3.09635 0
-430.633 -3.09398 0
-429.001 -3.0919 0
-427.368 -3.09068 0
-425.735 -3.09097 0
-424.102 -3.0901 0
-422.47 -3.08779 0
-420.836 -3.08546 0
-419.204 -3.08373 0
-417.572 -3.08188 0
-415.941 -3.08061 0
-414.308 -3.08005 0
-412.676 -3.07856 0
-411.044 -3.07754 0
-409.411 -3.07855 0
-407.78 -3.07831 0
-406.147 -3.07638 0
-404.517 -3.07661 0
-402.885 -3.07493 0
-401.252 -3.07496 0
-399.621 -3.07402 0
-397.99 -3.07236 0
-396.358 -3.07279 0
-394.727 -3.07219 0
-393.095 -3.07205 0
-391.463 -3.07293 0
-389.83 -3.0704 0
-388.198 -3.06995 0
-386.566 -3.06979 0
-384.936 -3.06913 0
-383.304 -3.06857 0
-381.673 -3.06798 0
-380.041 -3.06715 0
-378.41 -3.06501 0
-376.779 -3.06544 0
-375.147 -3.06468 0
-373.515 -3.06468 0
-371.882 -3.06511 0
-370.252 -3.06301 0
-368.62 -3.06345 0
-366.989 -3.06387 0
-365.358 -3.06445 0
-363.726 -3.06405 0
-362.094 -3.06447 0
-360.463 -3.06506 0
-358.832 -3.06349 0
-357.201 -3.06152 0
-355.57 -3.06173 0
-353.938 -3.06113 0
-352.306 -3.06099 0
-350.676 -3.06021 0
-349.044 -3.06161 0
-347.413 -3.05951 0
-345.783 -3.05739 0
-344.152 -3.05691 0
-342.521 -3.05626 0
-340.891 -3.05641 0
-339.259 -3.05627 0
-337.628 -3.05419 0
-335.997 -3.05399 0
-334.366 -3.05284 0
-332.736 -3.05288 0
-331.104 -3.05207 0
-329.473 -3.0516 0
-327.842 -3.05132 0
-326.211 -3.05015 0
-324.58 -3.04898 0
-322.949 -3.04865 0
-321.318 -3.04774 0
-319.687 -3.0467 0
-318.055 -3.04576 0
-316.423 -3.04585 0
-314.792 -3.04376 0
-313.161 -3.04199 0
-311.53 -3.04056 0
-309.9 -3.03996 0
-308.269 -3.03871 0
-306.638 -3.03646 0
-305.008 -3.035 0
-303.376 -3.03308 0
-301.745 -3.03081 0
-300.114 -3.02852 0
-298.482 -3.02896 0
-296.852 -3.02627 0
-295.22 -3.02501 0
-293.589 -3.02299 0
-291.957 -3.02174 0
-290.326 -3.01929 0
-288.695 -3.01632 0
-287.065 -3.01431 0
-285.434 -3.01065 0
-283.802 -3.00823 0
-282.17 -3.00609 0
-280.54 -3.00531 0
-278.909 -3.00336 0
-277.279 -3.00108 0
-275.649 -2.99847 0
-274.019 -2.99786 0
-272.387 -2.99618 0
-270.755 -2.99418 0
-269.125 -2.99105 0
-267.494 -2.98751 0
-265.865 -2.98593 0
-264.232 -2.98293 0
-262.6 -2.98018 0
-260.97 -2.97691 0
-259.337 -2.97504 0
-257.706 -2.9724 0
-256.076 -2.97007 0
-254.445 -2.96756 0
-252.814 -2.96531 0
-251.181 -2.96147 0
-249.549 -2.96032 0
-247.918 -2.95854 0
-246.289 -2.95526 0
-244.657 -2.95267 0
-243.025 -2.94729 0
-241.395 -2.94744 0
-239.764 -2.9449 0
-238.134 -2.94147 0
-236.503 -2.94159 0
-234.872 -2.93816 0
-233.24 -2.93586 0
-231.609 -2.93354 0
-229.978 -2.92966 0
-228.347 -2.92649 0
-226.716 -2.92308 0
-225.084 -2.92189 0
-223.453 -2.92015 0
-221.821 -2.91791 0
-220.19 -2.915 0
-218.559 -2.9129 0
-216.929 -2.90949 0
-215.297 -2.90735 0
-213.667 -2.90507 0
-212.036 -2.90191 0
-210.404 -2.89954 0
-208.773 -2.89514 0
-207.142 -2.89397 0
-205.512 -2.8921 0
-203.881 -2.89044 0
-202.248 -2.88682 0
-200.618 -2.88578 0
-198.985 -2.88161 0
-197.354 -2.87904 0
-195.722 -2.87537 0
-194.091 -2.87452 0
-192.459 -2.87105 0
-190.828 -2.86859 0
-189.195 -2.86737 0
-187.564 -2.86647 0
-185.933 -2.86505 0
-184.301 -2.86269 0
-182.669 -2.85853 0
-181.037 -2.85624 0
-179.407 -2.85493 0
-177.777 -2.85287 0
-176.146 -2.85104 0
-174.514 -2.84844 0
-172.884 -2.84659 0
-171.252 -2.84288 0
-169.621 -2.84249 0
-167.991 -2.83974 0
-166.359 -2.83689 0
-164.729 -2.83521 0
-163.097 -2.83353 0
-161.465 -2.83049 0
-159.833 -2.82842 0
-158.2 -2.82678 0
-156.572 -2.8255 0
-154.942 -2.82492 0
-153.311 -2.82279 0
-151.679 -2.82218 0
-150.048 -2.82106 0
-148.417 -2.81973 0
-146.786 -2.81634 0
-145.153 -2.81498 0
-143.524 -2.81293 0
-141.891 -2.811 0
-140.261 -2.80862 0
-138.63 -2.80807 0
-136.998 -2.80815 0
-135.367 -2.80738 0
-133.735 -2.8069 0
-132.104 -2.80359 0
-130.475 -2.80383 0
-128.844 -2.80157 0
-127.21 -2.80034 0
-125.579 -2.79942 0
-123.949 -2.7988 0
-122.318 -2.79949 0
-120.687 -2.79778 0
-119.055 -2.79499 0
-117.423 -2.79502 0
-115.793 -2.79402 0
-114.159 -2.79278 0
-112.529 -2.79035 0
-110.9 -2.78972 0
-109.268 -2.79037 0
-107.636 -2.79033 0
-106.003 -2.78857 0
-104.374 -2.79023 0
-102.745 -2.78858 0
-101.115 -2.7877 0
-99.4836 -2.78808 0
-97.8511 -2.78741 0
-96.2194 -2.78629 0
-94.5891 -2.78508 0
-92.9589 -2.78676 0
-91.3282 -2.78526 0
-89.6974 -2.78464 0
-88.0664 -2.78291 0
-86.4357 -2.78357 0
-84.8036 -2.78228 0
-83.172 -2.78223 0
-81.5403 -2.78289 0
-79.9101 -2.78194 0
-78.2785 -2.78211 0
-76.6476 -2.78044 0
-75.0171 -2.78087 0
-73.3877 -2.78132 0
-71.7568 -2.78076 0
-70.1258 -2.78167 0
-68.4921 -2.77997 0
-66.8608 -2.77907 0
-65.2319 -2.77868 0
-63.5991 -2.77999 0
-61.9669 -2.77729 0
-60.3367 -2.77719 0
-58.7065 -2.7767 0
-57.0761 -2.77796 0
-55.445 -2.77855 0
-53.8135 -2.77723 0
-52.183 -2.77875 0
-50.5522 -2.77789 0
-48.921 -2.77744 0
-47.2913 -2.77665 0
-45.6624 -2.7777 0
-44.0307 -2.77552 0
-42.3998 -2.77442 0
-40.7693 -2.77403 0
-39.1392 -2.77429 0
-37.5077 -2.7758 0
-35.875 -2.7724 0
-34.2459 -2.77185 0
-32.6153 -2.7745 0
-30.9833 -2.77459 0
-29.3522 -2.77307 0
-27.7223 -2.77368 0
-26.0931 -2.77355 0
-24.4631 -2.77481 0
-22.831 -2.77392 0
-21.1994 -2.77338 0
-19.5689 -2.77244 0
-17.9392 -2.77376 0
-16.3082 -2.77311 0
-14.6775 -2.77366 0
-13.0476 -2.77321 0
-11.4171 -2.77172 0
-9.7868 -2.7728 0
-8.15441 -2.77227 0
-6.52382 -2.77302 0
-4.89371 -2.77231 0
-3.26256 -2.77181 0
-1.62991 -2.77051 0
0 -2.76868 0
-1106.92 70.746 0
-1106.52 63.4525 0
-1106.27 56.5869 0
-1105.98 50.0125 0
-1105.68 43.7179 0
-1105.38 37.697 0
-1105.07 31.9606 0
-1104.7 26.5195 0
-1104.26 21.4076 0
-1103.77 16.662 0
-1103.25 12.2977 0
-1102.7 8.31429 0
-1102.14 4.70333 0
-1101.56 1.45138 0
-1100.96 -1.45934 0
-1100.34 -4.05047 0
-1099.7 -6.34583 0
-1099.03 -8.36961 0
-1098.34 -10.1456 0
-1097.62 -11.6963 0
-1096.87 -13.0421 0
-1096.09 -14.2027 0
-1095.28 -15.1946 0
-1094.44 -16.0339 0
-1093.57 -16.7343 0
-1092.67 -17.3075 0
-1091.74 -17.765 0
-1090.79 -18.1168 0
-1089.8 -18.3708 0
-1088.8 -18.5357 0
-1087.76 -18.6172 0
-1086.71 -18.6223 0
-1085.62 -18.5565 0
-1084.52 -18.4246 0
-1083.39 -18.2317 0
-1082.24 -17.9819 0
-1081.06 -17.6802 0
-1079.86 -17.33 0
-1078.64 -16.9352 0
-1077.4 -16.5 0
-1076.13 -16.0279 0
-1074.84 -15.5224 0
-1073.54 -14.9867 0
-1072.21 -14.4243 0
-1070.86 -13.8388 0
-1069.49 -13.2324 0
-1068.1 -12.6086 0
-1066.69 -11.9707 0
-1065.26 -11.321 0
-1063.82 -10.6621 0
-1062.36 -9.99746 0
-1060.88 -9.32809 0
-1059.38 -8.65738 0
-1057.87 -7.98697 0
-1056.35 -7.31881 0
-1054.81 -6.65516 0
-1053.25 -5.99741 0
-1051.68 -5.34759 0
-1050.1 -4.70689 0
-1048.51 -4.07731 0
-1046.91 -3.4598 0
-1045.29 -2.85576 0
-1043.66 -2.26601 0
-1042.03 -1.6914 0
-1040.38 -1.13332 0
-1038.73 -0.592712 0
-1037.07 -0.0702398 0
-1035.4 0.433378 0
-1033.72 0.918149 0
-1032.04 1.38337 0
-1030.35 1.82793 0
-1028.66 2.25227 0
-1026.96 2.65589 0
-1025.26 3.03822 0
-1023.55 3.39956 0
-1021.83 3.74031 0
-1020.12 4.05922 0
-1018.4 4.35682 0
-1016.68 4.63344 0
-1014.96 4.88884 0
-1013.23 5.12344 0
-1011.51 5.33682 0
-1009.78 5.53016 0
-1008.05 5.70279 0
-1006.32 5.85609 0
-1004.59 5.98967 0
-1002.86 6.10415 0
-1001.13 6.19946 0
-999.407 6.27679 0
-997.68 6.33624 0
-995.953 6.37825 0
-994.229 6.40327 0
-992.505 6.41244 0
-990.784 6.40509 0
-989.063 6.38321 0
-987.345 6.34648 0
-985.63 6.29591 0
-983.916 6.23087 0
-982.205 6.15304 0
-980.496 6.06303 0
-978.79 5.96125 0
-977.086 5.84815 0
-975.386 5.72495 0
-973.688 5.59203 0