<?xml version="1.0"?>
<VTKFile type="StructuredGrid"  version="0.1" byte_order="LittleEndian" compressor="vtkZLibDataCompressor">
  <StructuredGrid WholeExtent="0 700 0 30 0 0">
    <Piece Extent="0 700 0 30 0 0">
      <PointData Vectors="Velocity">
        <DataArray type="Float32" Name="Velocity" NumberOfComponents="3" format="ascii">
-1082.93 51.3864 0
-1083.18 45.1809 0
-1083.49 39.1662 0
-1083.84 33.469 0
-1084.16 28.1238 0
-1084.38 23.0356 0
-1084.62 18.1421 0
-1084.91 13.5426 0
-1085.2 9.32482 0
-1085.46 5.50257 0
-1085.68 2.06656 0
-1085.86 -0.996362 0
-1086 -3.70084 0
-1086.07 -6.06899 0
-1086.08 -8.1235 0
-1086.01 -9.89072 0
-1085.87 -11.3966 0
-1085.64 -12.6663 0
-1085.33 -13.7244 0
-1084.95 -14.5916 0
-1084.48 -15.2899 0
-1083.95 -15.8366 0
-1083.34 -16.2489 0
-1082.67 -16.5412 0
-1081.94 -16.7285 0
-1081.16 -16.8214 0
-1080.32 -16.8309 0
-1079.43 -16.7668 0
-1078.49 -16.6376 0
-1077.52 -16.451 0
-1076.5 -16.2126 0
-1075.44 -15.9294 0
-1074.35 -15.6061 0
-1073.22 -15.2476 0
-1072.06 -14.858 0
-1070.87 -14.4415 0
-1069.65 -14.0021 0
-1068.39 -13.5426 0
-1067.11 -13.0676 0
-1065.8 -12.5782 0
-1064.46 -12.0784 0
-1063.1 -11.5709 0
-1061.72 -11.0575 0
-1060.31 -10.5413 0
-1058.87 -10.0242 0
-1057.42 -9.5093 0
-1055.94 -8.99769 0
-1054.44 -8.49177 0
-1052.92 -7.99249 0
-1051.39 -7.50212 0
-1049.84 -7.02143 0
-1048.27 -6.55305 0
-1046.69 -6.09682 0
-1045.09 -5.65483 0
-1043.48 -5.22731 0
-1041.85 -4.81618 0
-1040.22 -4.42106 0
-1038.57 -4.04331 0
-1036.92 -3.68248 0
-1035.25 -3.3402 0
-1033.58 -3.01643 0
-1031.9 -2.71178 0
-1030.21 -2.42595 0
-1028.52 -2.15873 0
-1026.82 -1.91125 0
-1025.11 -1.68267 0
-1023.41 -1.47327 0
-1021.7 -1.28292 0
-1019.98 -1.11136 0
-1018.27 -0.957551 0
-1016.55 -0.822672 0
-1014.83 -0.705249 0
-1013.11 -0.60512 0
-1011.39 -0.52251 0
-1009.68 -0.456245 0
-1007.96 -0.406049 0
-1006.24 -0.371764 0
-1004.53 -0.352317 0
-1002.81 -0.347325 0
-1001.1 -0.355357 0
-999.393 -0.376717 0
-997.686 -0.411396 0
-995.983 -0.458051 0
-994.282 -0.514766 0
-992.585 -0.583967 0
-990.891 -0.662574 0
-989.201 -0.750555 0
-987.515 -0.847267 0
-985.832 -0.952493 0
-984.153 -1.06433 0
-982.478 -1.18412 0
-980.807 -1.30982 0
-979.14 -1.44001 0
-977.478 -1.57628 0
-975.819 -1.7165 0
-974.164 -1.86002 0
-972.513 -2.00758 0
-970.866 -2.15716 0
-969.223 -2.30931 0
-967.584 -2.46292 0
-965.948 -2.61703 0
-964.316 -2.77261 0
-962.687 -2.92706 0
-961.062 -3.08263 0
-959.441 -3.23712 0
-957.823 -3.39012 0
-956.208 -3.54135 0
-954.596 -3.6894 0
-952.987 -3.83635 0
-951.381 -3.98078 0
-949.777 -4.12196 0
-948.176 -4.25967 0
-946.576 -4.39428 0
-944.979 -4.52537 0
-943.384 -4.6523 0
-941.791 -4.77454 0
-940.2 -4.89355 0
-938.611 -5.00733 0
-937.022 -5.11577 0
-935.436 -5.22032 0
-933.851 -5.31973 0
-932.267 -5.41364 0
-930.683 -5.50367 0
-929.102 -5.58746 0
-927.52 -5.66608 0
-925.94 -5.74048 0
-924.359 -5.80937 0
-922.779 -5.87351 0
-921.2 -5.93153 0
-919.62 -5.98506 0
-918.041 -6.03426 0
-916.462 -6.07664 0
-914.883 -6.11551 0
-913.302 -6.14855 0
-911.722 -6.17804 0
-910.142 -6.20267 0
-908.562 -6.22206 0
-906.981 -6.23804 0
-905.4 -6.24917 0
-903.817 -6.2557 0
-902.234 -6.25971 0
-900.651 -6.25814 0
-899.067 -6.25384 0
-897.481 -6.24491 0
-895.895 -6.23313 0
-894.309 -6.21869 0
-892.721 -6.20031 0
-891.132 -6.17887 0
-889.542 -6.15538 0
-887.951 -6.1281 0
-886.359 -6.09964 0
-884.766 -6.06864 0
-883.173 -6.03474 0
-881.579 -5.99849 0
-879.983 -5.96191 0
-878.385 -5.92284 0
-876.788 -5.88247 0
-875.189 -5.84045 0
-873.588 -5.79709 0
-871.986 -5.75371 0
-870.385 -5.70899 0
-868.781 -5.66207 0
-867.176 -5.61614 0
-865.571 -5.56824 0
-863.964 -5.52093 0
-862.357 -5.47366 0
-860.75 -5.42691 0
-859.141 -5.37877 0
-857.532 -5.33047 0
-855.921 -5.28255 0
-854.31 -5.23547 0
-852.698 -5.18908 0
-851.085 -5.14341 0
-849.471 -5.09814 0
-847.857 -5.05219 0
-846.243 -5.00838 0
-844.627 -4.96509 0
-843.01 -4.92315 0
-841.393 -4.88186 0
-839.776 -4.84211 0
-838.159 -4.80127 0
-836.541 -4.76373 0
-834.922 -4.72624 0
-833.303 -4.69147 0
-831.683 -4.65757 0
-830.063 -4.62351 0
-828.443 -4.59278 0
-826.822 -4.5619 0
-825.202 -4.5321 0
-823.58 -4.50514 0
-821.959 -4.48047 0
-820.337 -4.4543 0
-818.717 -4.43177 0
-817.094 -4.41023 0
-815.473 -4.38918 0
-813.852 -4.36876 0
-812.23 -4.35185 0
-810.608 -4.33635 0
-808.986 -4.32257 0
-807.365 -4.31054 0
-805.743 -4.29753 0
-804.12 -4.28793 0
-802.498 -4.27882 0
-800.878 -4.27074 0
-799.257 -4.26536 0
-797.636 -4.26064 0
-796.014 -4.25745 0
-794.393 -4.25497 0
-792.773 -4.25317 0
-791.153 -4.25318 0
-789.532 -4.25415 0
-787.911 -4.25516 0
-786.292 -4.25932 0
-784.672 -4.26384 0
-783.053 -4.26904 0
-781.433 -4.27509 0
-779.814 -4.28209 0
-778.197 -4.28803 0
-776.576 -4.29828 0
-774.959 -4.30761 0
-773.341 -4.3173 0
-771.724 -4.32983 0
-770.106 -4.34012 0
-768.49 -4.35195 0
-766.874 -4.36578 0
-765.258 -4.3784 0
-763.642 -4.39109 0
-762.026 -4.40683 0
-760.41 -4.42126 0
-758.796 -4.43569 0
-757.181 -4.44971 0
-755.566 -4.46528 0
-753.952 -4.48048 0
-752.339 -4.49562 0
-750.725 -4.51142 0
-749.112 -4.52702 0
-747.499 -4.5426 0
-745.886 -4.55802 0
-744.274 -4.57449 0
-742.661 -4.5894 0
-741.049 -4.60466 0
-739.437 -4.62151 0
-737.825 -4.63667 0
-736.215 -4.65314 0
-734.604 -4.66797 0
-732.991 -4.68254 0
-731.381 -4.69724 0
-729.771 -4.71292 0
-728.159 -4.72738 0
-726.55 -4.74228 0
-724.94 -4.75561 0
-723.329 -4.76884 0
-721.719 -4.78123 0
-720.108 -4.79351 0
-718.499 -4.80507 0
-716.89 -4.81771 0
-715.281 -4.82826 0
-713.672 -4.84004 0
-712.063 -4.85158 0
-710.453 -4.86081 0
-708.845 -4.87186 0
-707.237 -4.87905 0
-705.627 -4.889 0
-704.018 -4.89788 0
-702.409 -4.9042 0
-700.798 -4.91189 0
-699.19 -4.91883 0
-697.581 -4.92715 0
-695.974 -4.93171 0
-694.365 -4.93753 0
-692.755 -4.94286 0
-691.146 -4.94721 0
-689.538 -4.95435 0
-687.93 -4.95847 0
-686.321 -4.96115 0
-684.711 -4.96343 0
-683.104 -4.96637 0
-681.496 -4.96839 0
-679.887 -4.97101 0
-678.277 -4.97183 0
-676.668 -4.97446 0
-675.06 -4.97474 0
-673.45 -4.97432 0
-671.842 -4.97422 0
-670.233 -4.97345 0
-668.623 -4.97487 0
-667.014 -4.97242 0
-665.405 -4.9712 0
-663.796 -4.97004 0
-662.185 -4.96855 0
-660.575 -4.96632 0
-658.965 -4.96393 0
-657.356 -4.9608 0
-655.747 -4.95725 0
-654.136 -4.95354 0
-652.527 -4.95036 0
-650.915 -4.94658 0
-649.306 -4.94305 0
-647.696 -4.94001 0
-646.087 -4.93627 0
-644.477 -4.9327 0
-642.866 -4.92745 0
-641.255 -4.92463 0
-639.645 -4.91884 0
-638.034 -4.9134 0
-636.423 -4.90881 0
-634.811 -4.90311 0
-633.201 -4.89875 0
-631.59 -4.89528 0
-629.979 -4.89045 0
-628.368 -4.88431 0
-626.758 -4.87821 0
-625.146 -4.87171 0
-623.534 -4.86741 0
-621.923 -4.86276 0
-620.311 -4.8588 0
-618.701 -4.85291 0
-617.089 -4.84635 0
-615.477 -4.84192 0
-613.865 -4.83691 0
-612.254 -4.83208 0
-610.643 -4.82721 0
-609.031 -4.82083 0
-607.416 -4.81676 0
-605.805 -4.81212 0
-604.192 -4.80619 0
-602.581 -4.80107 0
-600.967 -4.79736 0
-599.357 -4.79244 0
-597.743 -4.78786 0
-596.132 -4.78473 0
-594.519 -4.7798 0
-592.908 -4.77547 0
-591.295 -4.77085 0
-589.682 -4.76794 0
-588.071 -4.76391 0
-586.457 -4.76025 0
-584.846 -4.75608 0
-583.232 -4.75436 0
-581.619 -4.75122 0
-580.004 -4.74793 0
-578.391 -4.74407 0
-576.779 -4.74289 0
-575.167 -4.74129 0
-573.554 -4.7366 0
-571.942 -4.73558 0
-570.329 -4.73334 0
-568.716 -4.7327 0
-567.103 -4.73116 0
-565.49 -4.72879 0
-563.878 -4.72749 0
-562.266 -4.72526 0
-560.653 -4.72556 0
-559.04 -4.72283 0
-557.428 -4.72329 0
-555.813 -4.72133 0
-554.202 -4.72206 0
-552.59 -4.72169 0
-550.977 -4.71949 0
-549.364 -4.71951 0
-547.753 -4.7183 0
-546.141 -4.71924 0
-544.528 -4.71916 0
-542.915 -4.71999 0
-541.302 -4.71989 0
-539.69 -4.72056 0
-538.076 -4.71978 0
-536.465 -4.72213 0
-534.853 -4.7214 0
-533.242 -4.72238 0
-531.63 -4.72177 0
-530.018 -4.72307 0
-528.405 -4.72611 0
-526.793 -4.72527 0
-525.182 -4.72439 0
-523.569 -4.72806 0
-521.957 -4.72883 0
-520.345 -4.729 0
-518.731 -4.731 0
-517.12 -4.73115 0
-515.511 -4.73313 0
-513.898 -4.73596 0
-512.285 -4.73625 0
-510.674 -4.73783 0
-509.061 -4.73817 0
-507.45 -4.7426 0
-505.839 -4.74285 0
-504.229 -4.7435 0
-502.617 -4.74487 0
-501.005 -4.74485 0
-499.393 -4.7461 0
-497.781 -4.74711 0
-496.169 -4.7521 0
-494.557 -4.75143 0
-492.945 -4.75289 0
-491.334 -4.75339 0
-489.722 -4.75585 0
-488.111 -4.75626 0
-486.5 -4.75975 0
-484.888 -4.7609 0
-483.277 -4.76414 0
-481.665 -4.76494 0
-480.054 -4.76429 0
-478.442 -4.76487 0
-476.832 -4.76802 0
-475.22 -4.77122 0
-473.607 -4.77009 0
-471.997 -4.77306 0
-470.385 -4.77271 0
-468.773 -4.77337 0
-467.162 -4.77335 0
-465.551 -4.77588 0
-463.939 -4.77777 0
-462.328 -4.77896 0
-460.719 -4.78295 0
-459.108 -4.78085 0
-457.496 -4.78328 0
-455.885 -4.78294 0
-454.275 -4.7844 0
-452.663 -4.78676 0
-451.053 -4.78662 0
-449.44 -4.78879 0
-447.831 -4.7887 0
-446.219 -4.79034 0
-444.607 -4.79076 0
-442.996 -4.78889 0
-441.385 -4.78819 0
-439.773 -4.79039 0
-438.164 -4.78905 0
-436.553 -4.79144 0
-434.941 -4.7924 0
-433.329 -4.7923 0
-431.716 -4.79239 0
-430.107 -4.79328 0
-428.498 -4.79471 0
-426.886 -4.7937 0
-425.275 -4.79431 0
-423.664 -4.79633 0
-422.051 -4.79684 0
-420.441 -4.79501 0
-418.831 -4.79437 0
-417.22 -4.79732 0
-415.606 -4.79671 0
-413.996 -4.7959 0
-412.385 -4.79618 0
-410.774 -4.79515 0
-409.163 -4.79407 0
-407.551 -4.79606 0
-405.94 -4.79737 0
-404.331 -4.79337 0
-402.719 -4.79436 0
-401.105 -4.79315 0
-399.495 -4.79206 0
-397.887 -4.79107 0
-396.274 -4.79094 0
-394.663 -4.79107 0
-393.053 -4.79143 0
-391.44 -4.79012 0
-389.829 -4.79059 0
-388.219 -4.79063 0
-386.607 -4.78831 0
-384.995 -4.78723 0
-383.386 -4.78615 0
-381.774 -4.78601 0
-380.164 -4.78622 0
-378.553 -4.7827 0
-376.943 -4.78318 0
-375.331 -4.78311 0
-373.72 -4.78268 0
-372.11 -4.78119 0
-370.499 -4.78075 0
-368.887 -4.78066 0
-367.274 -4.77938 0
-365.665 -4.77691 0
-364.052 -4.77611 0
-362.44 -4.77611 0
-360.831 -4.77634 0
-359.22 -4.77775 0
-357.608 -4.77458 0
-355.996 -4.77704 0
-354.385 -4.77546 0
-352.773 -4.77396 0
-351.161 -4.77408 0
-349.549 -4.77181 0
-347.939 -4.77244 0
-346.328 -4.76866 0
-344.716 -4.76938 0
-343.106 -4.76904 0
-341.492 -4.76788 0
-339.882 -4.76664 0
-338.268 -4.76647 0
-336.657 -4.76725 0
-335.046 -4.76673 0
-333.437 -4.76677 0
-331.823 -4.76494 0
-330.212 -4.76446 0
-328.603 -4.76295 0
-326.991 -4.76117 0
-325.379 -4.76143 0
-323.768 -4.76267 0
-322.156 -4.76225 0
-320.545 -4.76025 0
-318.935 -4.76359 0
-317.323 -4.76012 0
-315.712 -4.76265 0
-314.102 -4.76303 0
-312.49 -4.76199 0
-310.877 -4.7593 0
-309.268 -4.76043 0
-307.655 -4.7581 0
-306.044 -4.75655 0
-304.431 -4.75796 0
-302.82 -4.75696 0
-301.21 -4.75756 0
-299.599 -4.75637 0
-297.989 -4.75896 0
-296.377 -4.75634 0
-294.768 -4.7553 0
-293.156 -4.75586 0
-291.544 -4.75417 0
-289.934 -4.75482 0
-288.323 -4.75367 0
-286.713 -4.75589 0
-285.103 -4.75501 0
-283.491 -4.75401 0
-281.881 -4.7545 0
-280.27 -4.75591 0
-278.657 -4.75189 0
-277.045 -4.75373 0
-275.436 -4.75255 0
-273.821 -4.75436 0
-272.211 -4.75486 0
-270.603 -4.75434 0
-268.99 -4.7536 0
-267.379 -4.75171 0
-265.768 -4.75153 0
-264.157 -4.75145 0
-262.545 -4.74927 0
-260.935 -4.75131 0
-259.324 -4.7509 0
-257.714 -4.749 0
-256.103 -4.75147 0
-254.491 -4.75172 0
-252.881 -4.75073 0
-251.27 -4.75199 0
-249.659 -4.74945 0
-248.048 -4.75232 0
-246.436 -4.75038 0
-244.823 -4.75208 0
-243.212 -4.75392 0
-241.6 -4.75245 0
-239.988 -4.75095 0
-238.377 -4.75367 0
-236.769 -4.75357 0
-235.158 -4.75241 0
-233.545 -4.75271 0
-231.933 -4.75327 0
-230.322 -4.7529 0
-228.712 -4.75428 0
-227.098 -4.75167 0
-225.489 -4.75381 0
-223.876 -4.75601 0
-222.266 -4.75508 0
-220.657 -4.75611 0
-219.046 -4.75465 0
-217.435 -4.75564 0
-215.823 -4.75407 0
-214.213 -4.75693 0
-212.601 -4.75534 0
-210.993 -4.75671 0
-209.383 -4.7546 0
-207.771 -4.75655 0
-206.161 -4.75689 0
-204.548 -4.75891 0
-202.938 -4.75898 0
-201.33 -4.7579 0
-199.717 -4.75653 0
-198.106 -4.75853 0
-196.496 -4.75812 0
-194.884 -4.7573 0
-193.273 -4.75685 0
-191.659 -4.75671 0
-190.048 -4.7582 0
-188.439 -4.75904 0
-186.828 -4.75822 0
-185.215 -4.75933 0
-183.603 -4.75878 0
-181.994 -4.75923 0
-180.383 -4.75898 0
-178.772 -4.75796 0
-177.161 -4.7586 0
-175.551 -4.75872 0
-173.939 -4.75877 0
-172.33 -4.75939 0
-170.719 -4.76066 0
-169.109 -4.76041 0
-167.498 -4.75862 0
-165.887 -4.76006 0
-164.276 -4.75918 0
-162.667 -4.75992 0
-161.056 -4.75985 0
-159.445 -4.75811 0
-157.834 -4.76075 0
-156.224 -4.76019 0
-154.612 -4.75941 0
-153.001 -4.75928 0
-151.39 -4.76053 0
-149.78 -4.76125 0
-148.167 -4.76304 0
-146.559 -4.76332 0
-144.948 -4.76139 0
-143.339 -4.76111 0
-141.729 -4.76062 0
-140.117 -4.76055 0
-138.507 -4.75868 0
-136.896 -4.75908 0
-135.285 -4.75953 0
-133.675 -4.76039 0
-132.063 -4.76097 0
-130.452 -4.76152 0
-128.841 -4.76261 0
-127.23 -4.76113 0
-125.62 -4.76129 0
-124.01 -4.76111 0
-122.4 -4.76259 0
-120.791 -4.7614 0
-119.178 -4.76113 0
-117.568 -4.76238 0
-115.957 -4.76124 0
-114.347 -4.76051 0
-112.736 -4.76064 0
-111.124 -4.76111 0
-109.513 -4.76179 0
-107.901 -4.76065 0
-106.291 -4.76225 0
-104.681 -4.76159 0
-103.071 -4.76157 0
-101.461 -4.76175 0
-99.8493 -4.76168 0
-98.2407 -4.76087 0
-96.6307 -4.76169 0
-95.0193 -4.76099 0
-93.4095 -4.76047 0
-91.7992 -4.75963 0
-90.1895 -4.76041 0
-88.5768 -4.76041 0
-86.9665 -4.75885 0
-85.3553 -4.75982 0
-83.7455 -4.76052 0
-82.1343 -4.76126 0
-80.5247 -4.76165 0
-78.9138 -4.76066 0
-77.3026 -4.76023 0
-75.6921 -4.76007 0
-74.0842 -4.76117 0
-72.4748 -4.76139 0
-70.8621 -4.76156 0
-69.252 -4.76141 0
-67.6418 -4.76108 0
-66.03 -4.75929 0
-64.4193 -4.76029 0
-62.8093 -4.76231 0
-61.1995 -4.76098 0
-59.5866 -4.76214 0
-57.9774 -4.76267 0
-56.3669 -4.76051 0
-54.7564 -4.76011 0
-53.1462 -4.76054 0
-51.5358 -4.76134 0
-49.9251 -4.76108 0
-48.3133 -4.75982 0
-46.703 -4.76096 0
-45.0932 -4.75733 0
-43.4816 -4.75896 0
-41.871 -4.76015 0
-40.2607 -4.75958 0
-38.6514 -4.76065 0
-37.0405 -4.76096 0
-35.4298 -4.76106 0
-33.819 -4.76133 0
-32.2075 -4.75957 0
-30.5966 -4.76091 0
-28.9863 -4.76012 0
-27.3778 -4.75825 0
-25.7668 -4.75882 0
-24.1581 -4.75941 0
-22.547 -4.76124 0
-20.9362 -4.76036 0
-19.324 -4.75793 0
-17.7142 -4.75641 0
-16.1038 -4.75752 0
-14.4933 -4.75916 0
-12.8833 -4.75823 0
-11.2713 -4.7595 0
-9.65996 -4.75803 0
-8.0505 -4.75859 0
-6.44047 -4.75938 0
-4.83067 -4.75915 0
-3.22131 -4.75889 0
-1.60921 -4.75865 0
0 -4.75741 0
-1089.14 51.6773 0
-1089.23 45.4095 0
-1089.3 39.3644 0
-1089.31 33.6466 0
-1089.32 28.2844 0
-1089.39 23.1868 0
-1089.43 18.2858 0
-1089.37 13.6775 0
-1089.27 9.45105 0
-1089.14 5.62441 0
-1088.99 2.19128 0
-1088.8 -0.85929 0
-1088.59 -3.5416 0
-1088.33 -5.8765 0
-1088.03 -7.88804 0
-1087.69 -9.60403 0
-1087.29 -11.0533 0
-1086.83 -12.2631 0
-1086.32 -13.2591 0
-1085.75 -14.0653 0
-1085.12 -14.7031 0
-1084.44 -15.1913 0
-1083.7 -15.5477 0
-1082.92 -15.7875 0
-1082.09 -15.9242 0
-1081.21 -15.97 0
-1080.3 -15.9348 0
-1079.34 -15.8288 0
-1078.34 -15.6603 0
-1077.31 -15.436 0
-1076.24 -15.1621 0
-1075.15 -14.8445 0
-1074.02 -14.4889 0
-1072.85 -14.0991 0
-1071.67 -13.6793 0
-1070.45 -13.2336 0
-1069.2 -12.7663 0
-1067.93 -12.2798 0
-1066.64 -11.778 0
-1065.32 -11.2635 0
-1063.97 -10.7391 0
-1062.6 -10.2075 0
-1061.21 -9.67169 0
-1059.8 -9.13327 0
-1058.37 -8.59524 0
-1056.91 -8.06018 0
-1055.44 -7.52906 0
-1053.95 -7.00464 0
-1052.44 -6.48782 0
-1050.92 -5.98064 0
-1049.38 -5.48477 0
-1047.82 -5.00142 0
-1046.25 -4.53147 0
-1044.67 -4.07647 0
-1043.07 -3.63669 0
-1041.46 -3.21426 0
-1039.84 -2.8086 0
-1038.21 -2.42109 0
-1036.58 -2.05165 0
-1034.93 -1.70141 0
-1033.27 -1.37012 0
-1031.61 -1.05875 0
-1029.94 -0.767136 0
-1028.27 -0.49473 0
-1026.59 -0.242529 0
-1024.9 -0.0100008 0
-1023.21 0.203094 0
-1021.52 0.396338 0
-1019.83 0.570235 0
-1018.13 0.725219 0
-1016.43 0.86153 0
-1014.73 0.979873 0
-1013.03 1.08017 0
-1011.33 1.16304 0
-1009.62 1.22931 0
-1007.92 1.27844 0
-1006.22 1.31148 0
-1004.52 1.32977 0
-1002.82 1.33296 0
-1001.12 1.32229 0
-999.423 1.29858 0
-997.729 1.26185 0
-996.037 1.21291 0
-994.347 1.15253 0
-992.66 1.08089 0
-990.976 0.99896 0
-989.294 0.907507 0
-987.615 0.80729 0
-985.94 0.698438 0
-984.269 0.583538 0
-982.6 0.460388 0
-980.935 0.33142 0
-979.273 0.196845 0
-977.614 0.0574806 0
-975.959 -0.0866848 0
-974.308 -0.234037 0
-972.659 -0.385193 0
-971.015 -0.538468 0
-969.373 -0.693767 0
-967.736 -0.850765 0
-966.101 -1.00864 0
-964.469 -1.16661 0
-962.84 -1.3252 0
-961.215 -1.48367 0
-959.592 -1.64128 0
-957.973 -1.79702 0
-956.355 -1.95086 0
-954.741 -2.10237 0
-953.13 -2.25142 0
-951.52 -2.3984 0
-949.914 -2.54138 0
-948.309 -2.68166 0
-946.706 -2.81822 0
-945.106 -2.95108 0
-943.507 -3.08007 0
-941.909 -3.20473 0
-940.314 -3.32459 0
-938.72 -3.43965 0
-937.127 -3.55023 0
-935.536 -3.65549 0
-933.946 -3.75579 0
-932.357 -3.8512 0
-930.768 -3.9417 0
-929.181 -4.02614 0
-927.595 -4.10558 0
-926.009 -4.18099 0
-924.424 -4.25005 0
-922.839 -4.31466 0
-921.254 -4.3726 0
-919.67 -4.42641 0
-918.086 -4.47547 0
-916.501 -4.51802 0
-914.917 -4.55641 0
-913.333 -4.58969 0
-911.749 -4.61893 0
-910.164 -4.64304 0
-908.579 -4.6626 0
-906.994 -4.67787 0
-905.408 -4.68831 0
-903.821 -4.69472 0
-902.235 -4.69706 0
-900.647 -4.6961 0
-899.059 -4.69031 0
-897.471 -4.68063 0
-895.882 -4.66802 0
-894.292 -4.6525 0
-892.7 -4.63373 0
-891.109 -4.61112 0
-889.517 -4.58656 0
-887.923 -4.55872 0
-886.329 -4.52941 0
-884.734 -4.49721 0
-883.139 -4.46281 0
-881.542 -4.42532 0
-879.945 -4.38713 0
-878.346 -4.34734 0
-876.747 -4.30645 0
-875.146 -4.26307 0
-873.545 -4.21929 0
-871.943 -4.17439 0
-870.34 -4.12806 0
-868.736 -4.08193 0
-867.131 -4.034 0
-865.524 -3.98584 0
-863.918 -3.93801 0
-862.311 -3.88965 0
-860.703 -3.84171 0
-859.094 -3.79324 0
-857.485 -3.74413 0
-855.874 -3.69579 0
-854.263 -3.64737 0
-852.652 -3.60071 0
-851.039 -3.55379 0
-849.426 -3.5072 0
-847.813 -3.46184 0
-846.199 -3.41719 0
-844.585 -3.37312 0
-842.969 -3.32976 0
-841.353 -3.2883 0
-839.736 -3.24832 0
-838.12 -3.2082 0
-836.503 -3.16943 0
-834.886 -3.1318 0
-833.268 -3.09612 0
-831.649 -3.06138 0
-830.031 -3.02784 0
-828.413 -2.99588 0
-826.794 -2.96518 0
-825.174 -2.93577 0
-823.555 -2.90829 0
-821.935 -2.88213 0
-820.315 -2.85723 0
-818.695 -2.83426 0
-817.074 -2.81234 0
-815.453 -2.79124 0
-813.833 -2.77226 0
-812.213 -2.7543 0
-810.594 -2.73898 0
-808.974 -2.72542 0
-807.352 -2.71243 0
-805.732 -2.69991 0
-804.112 -2.69038 0
-802.492 -2.68114 0
-800.872 -2.674 0
-799.252 -2.66753 0
-797.632 -2.6641 0
-796.012 -2.65921 0
-794.392 -2.65838 0
-792.772 -2.65647 0
-791.152 -2.65647 0
-789.533 -2.65742 0
-787.914 -2.65958 0
-786.295 -2.66374 0
-784.677 -2.66809 0
-783.058 -2.67341 0
-781.439 -2.67952 0
-779.821 -2.68665 0
-778.203 -2.69429 0
-776.587 -2.70369 0
-774.969 -2.7137 0
-773.352 -2.72373 0
-771.735 -2.73564 0
-770.118 -2.7469 0
-768.502 -2.76008 0
-766.886 -2.77258 0
-765.271 -2.78612 0
-763.656 -2.79926 0
-762.04 -2.81443 0
-760.425 -2.82955 0
-758.81 -2.84467 0
-757.195 -2.8593 0
-755.581 -2.87445 0
-753.967 -2.88942 0
-752.354 -2.90557 0
-750.741 -2.92166 0
-749.128 -2.93702 0
-747.515 -2.95289 0
-745.902 -2.96842 0
-744.288 -2.98531 0
-742.677 -3.00091 0
-741.064 -3.01717 0
-739.453 -3.03316 0
-737.841 -3.04968 0
-736.229 -3.0654 0
-734.618 -3.0801 0
-733.006 -3.09479 0
-731.395 -3.11042 0
-729.786 -3.12497 0
-728.174 -3.14048 0
-726.563 -3.15463 0
-724.952 -3.1695 0
-723.341 -3.18164 0
-721.732 -3.19482 0
-720.122 -3.2071 0
-718.512 -3.21901 0
-716.902 -3.23134 0
-715.293 -3.24172 0
-713.683 -3.25372 0
-712.073 -3.26516 0
-710.464 -3.27557 0
-708.853 -3.28527 0
-707.244 -3.29442 0
-705.635 -3.30287 0
-704.025 -3.3116 0
-702.415 -3.31901 0
-700.807 -3.32601 0
-699.197 -3.33394 0
-697.588 -3.34026 0
-695.978 -3.34687 0
-694.368 -3.35166 0
-692.76 -3.3571 0
-691.151 -3.36221 0
-689.542 -3.36797 0
-687.934 -3.37191 0
-686.325 -3.37492 0
-684.716 -3.37758 0
-683.107 -3.38156 0
-681.497 -3.38286 0
-679.888 -3.38458 0
-678.279 -3.38636 0
-676.669 -3.38753 0
-675.059 -3.38861 0
-673.45 -3.38912 0
-671.842 -3.38866 0
-670.233 -3.3878 0
-668.623 -3.38821 0
-667.012 -3.38636 0
-665.403 -3.38466 0
-663.794 -3.38287 0
-662.184 -3.38127 0
-660.574 -3.37985 0
-658.963 -3.37724 0
-657.353 -3.37495 0
-655.744 -3.37126 0
-654.133 -3.3676 0
-652.522 -3.36379 0
-650.913 -3.35984 0
-649.303 -3.35714 0
-647.693 -3.35334 0
-646.082 -3.34989 0
-644.471 -3.34523 0
-642.861 -3.34019 0
-641.251 -3.33722 0
-639.64 -3.3328 0
-638.029 -3.326 0
-636.418 -3.32043 0
-634.807 -3.31534 0
-633.198 -3.31222 0
-631.585 -3.3069 0
-629.974 -3.30201 0
-628.364 -3.2969 0
-626.752 -3.29023 0
-625.14 -3.2838 0
-623.53 -3.27942 0
-621.919 -3.27539 0
-620.308 -3.27004 0
-618.695 -3.26428 0
-617.083 -3.25875 0
-615.472 -3.25394 0
-613.86 -3.24799 0
-612.249 -3.24375 0
-610.637 -3.23851 0
-609.025 -3.23163 0
-607.413 -3.22681 0
-605.801 -3.22344 0
-604.188 -3.21694 0
-602.576 -3.21275 0
-600.964 -3.2086 0
-599.351 -3.20302 0
-597.74 -3.19858 0
-596.127 -3.19457 0
-594.515 -3.19082 0
-592.903 -3.18728 0
-591.291 -3.18108 0
-589.679 -3.1792 0
-588.066 -3.17442 0
-586.454 -3.1699 0
-584.841 -3.16678 0
-583.229 -3.16486 0
-581.615 -3.16108 0
-580.002 -3.1578 0
-578.39 -3.15607 0
-576.776 -3.15387 0
-575.165 -3.15116 0
-573.553 -3.14867 0
-571.94 -3.14594 0
-570.328 -3.1446 0
-568.715 -3.14204 0
-567.102 -3.14111 0
-565.489 -3.14044 0
-563.877 -3.13774 0
-562.267 -3.13701 0
-560.652 -3.13514 0
-559.039 -3.1339 0
-557.427 -3.13312 0
-555.814 -3.13153 0
-554.201 -3.1315 0
-552.589 -3.13078 0
-550.976 -3.12938 0
-549.364 -3.13055 0
-547.752 -3.12924 0
-546.14 -3.12959 0
-544.528 -3.13054 0
-542.915 -3.13068 0
-541.303 -3.13067 0
-539.69 -3.13084 0
-538.079 -3.1307 0
-536.465 -3.13211 0
-534.853 -3.13246 0
-533.241 -3.13406 0
-531.63 -3.13346 0
-530.018 -3.13496 0
-528.405 -3.1365 0
-526.793 -3.13727 0
-525.182 -3.13682 0
-523.571 -3.13927 0
-521.958 -3.13991 0
-520.346 -3.13979 0
-518.734 -3.14215 0
-517.122 -3.14345 0
-515.511 -3.14564 0
-513.899 -3.14688 0
-512.287 -3.14926 0
-510.674 -3.14809 0
-509.063 -3.15014 0
-507.453 -3.15377 0
-505.841 -3.15539 0
-504.228 -3.15611 0
-502.616 -3.15709 0
-501.005 -3.15573 0
-499.394 -3.15783 0
-497.782 -3.15847 0
-496.17 -3.16189 0
-494.557 -3.16408 0
-492.946 -3.16479 0
-491.334 -3.16569 0
-489.724 -3.16807 0
-488.112 -3.16868 0
-486.5 -3.17104 0
-484.889 -3.17242 0
-483.278 -3.17528 0
-481.666 -3.17553 0
-480.054 -3.17645 0
-478.443 -3.17817 0
-476.832 -3.18083 0
-475.223 -3.18158 0
-473.61 -3.18239 0
-471.998 -3.18314 0
-470.386 -3.18523 0
-468.774 -3.18565 0
-467.162 -3.18699 0
-465.552 -3.18768 0
-463.942 -3.18917 0
-462.331 -3.19183 0
-460.719 -3.19484 0
-459.108 -3.19519 0
-457.497 -3.19511 0
-455.885 -3.19642 0
-454.275 -3.19639 0
-452.663 -3.19814 0
-451.051 -3.19837 0
-449.442 -3.19989 0
-447.83 -3.20052 0
-446.22 -3.20202 0
-444.607 -3.20202 0
-442.995 -3.20199 0
-441.385 -3.20181 0
-439.775 -3.2016 0
-438.164 -3.20223 0
-436.553 -3.20419 0
-434.941 -3.20323 0
-433.329 -3.20469 0
-431.719 -3.20573 0
-430.108 -3.20612 0
-428.498 -3.20647 0
-426.886 -3.206 0
-425.276 -3.20621 0
-423.663 -3.20743 0
-422.053 -3.20717 0
-420.441 -3.20766 0
-418.83 -3.20715 0
-417.219 -3.20866 0
-415.606 -3.20783 0
-413.995 -3.20735 0
-412.384 -3.20811 0
-410.773 -3.20855 0
-409.163 -3.20605 0
-407.552 -3.20656 0
-405.94 -3.20779 0
-404.328 -3.20722 0
-402.718 -3.20733 0
-401.108 -3.20591 0
-399.496 -3.20446 0
-397.884 -3.20346 0
-396.274 -3.20261 0
-394.663 -3.20425 0
-393.053 -3.20409 0
-391.441 -3.20308 0
-389.83 -3.20351 0
-388.217 -3.20267 0
-386.605 -3.20077 0
-384.997 -3.20179 0
-383.385 -3.20034 0
-381.775 -3.19848 0
-380.164 -3.19827 0
-378.553 -3.19629 0
-376.941 -3.19627 0
-375.33 -3.19646 0
-373.719 -3.19557 0
-372.108 -3.19389 0
-370.498 -3.19163 0
-368.885 -3.19265 0
-367.272 -3.19084 0
-365.661 -3.19064 0
-364.052 -3.18826 0
-362.441 -3.18854 0
-360.828 -3.18833 0
-359.217 -3.18777 0
-357.605 -3.18689 0
-355.993 -3.18841 0
-354.381 -3.18751 0
-352.771 -3.18577 0
-351.16 -3.18509 0
-349.547 -3.18373 0
-347.935 -3.18369 0
-346.325 -3.18177 0
-344.715 -3.18253 0
-343.103 -3.18055 0
-341.492 -3.18039 0
-339.88 -3.17947 0
-338.269 -3.17934 0
-336.658 -3.17826 0
-335.047 -3.17927 0
-333.436 -3.17754 0
-331.823 -3.17641 0
-330.213 -3.17779 0
-328.601 -3.17407 0
-326.991 -3.17419 0
-325.38 -3.17487 0
-323.768 -3.174 0
-322.157 -3.17217 0
-320.547 -3.17446 0
-318.933 -3.17321 0
-317.323 -3.17309 0
-315.712 -3.17322 0
-314.101 -3.1739 0
-312.488 -3.17415 0
-310.877 -3.17164 0
-309.264 -3.17032 0
-307.655 -3.17062 0
-306.043 -3.1702 0
-304.432 -3.16848 0
-302.819 -3.16944 0
-301.209 -3.16873 0
-299.598 -3.17037 0
-297.987 -3.16876 0
-296.376 -3.16981 0
-294.767 -3.16958 0
-293.156 -3.16759 0
-291.546 -3.16691 0
-289.933 -3.16781 0
-288.322 -3.16703 0
-286.712 -3.16706 0
-285.1 -3.16696 0
-283.49 -3.1657 0
-281.879 -3.16571 0
-280.269 -3.16711 0
-278.658 -3.1647 0
-277.046 -3.16417 0
-275.434 -3.16545 0
-273.822 -3.16556 0
-272.211 -3.16749 0
-270.599 -3.16669 0
-268.989 -3.16563 0
-267.379 -3.16431 0
-265.768 -3.16286 0
-264.156 -3.16318 0
-262.546 -3.16286 0
-260.935 -3.16308 0
-259.324 -3.16381 0
-257.714 -3.16267 0
-256.104 -3.16282 0
-254.492 -3.16185 0
-252.88 -3.16281 0
-251.27 -3.16331 0
-249.658 -3.16383 0
-248.047 -3.16435 0
-246.435 -3.16329 0
-244.824 -3.1644 0
-243.212 -3.16408 0
-241.6 -3.16413 0
-239.989 -3.16408 0
-238.377 -3.16616 0
-236.767 -3.16579 0
-235.157 -3.1654 0
-233.545 -3.1656 0
-231.934 -3.16404 0
-230.324 -3.16573 0
-228.712 -3.16566 0
-227.101 -3.16691 0
-225.489 -3.16677 0
-223.877 -3.16805 0
-222.266 -3.16791 0
-220.655 -3.16917 0
-219.045 -3.16617 0
-217.434 -3.16756 0
-215.825 -3.16841 0
-214.215 -3.16759 0
-212.604 -3.16941 0
-210.992 -3.16965 0
-209.382 -3.17046 0
-207.771 -3.1691 0
-206.16 -3.16915 0
-204.55 -3.17145 0
-202.938 -3.17222 0
-201.325 -3.17014 0
-199.715 -3.16984 0
-198.104 -3.17028 0
-196.493 -3.17059 0
-194.882 -3.17007 0
-193.273 -3.16886 0
-191.661 -3.16843 0
-190.05 -3.17144 0
-188.439 -3.17091 0
-186.828 -3.17099 0
-185.218 -3.17017 0
-183.606 -3.17186 0
-181.994 -3.17295 0
-180.382 -3.17105 0
-178.772 -3.17118 0
-177.162 -3.1714 0
-175.551 -3.17263 0
-173.942 -3.17149 0
-172.331 -3.17239 0
-170.72 -3.17348 0
-169.109 -3.17293 0
-167.498 -3.17288 0
-165.889 -3.17289 0
-164.277 -3.173 0
-162.666 -3.17138 0
-161.055 -3.17119 0
-159.446 -3.17086 0
-157.835 -3.1733 0
-156.223 -3.17266 0
-154.613 -3.17318 0
-153.002 -3.1719 0
-151.39 -3.17276 0
-149.78 -3.1743 0
-148.171 -3.17541 0
-146.558 -3.17511 0
-144.948 -3.17486 0
-143.338 -3.17397 0
-141.726 -3.17373 0
-140.116 -3.17283 0
-138.507 -3.17197 0
-136.896 -3.17238 0
-135.285 -3.17244 0
-133.675 -3.17243 0
-132.065 -3.17331 0
-130.454 -3.17473 0
-128.842 -3.17429 0
-127.231 -3.17361 0
-125.62 -3.17397 0
-124.01 -3.17398 0
-122.401 -3.17391 0
-120.789 -3.17304 0
-119.179 -3.17438 0
-117.568 -3.17421 0
-115.957 -3.17375 0
-114.346 -3.17439 0
-112.735 -3.17325 0
-111.124 -3.1736 0
-109.512 -3.17363 0
-107.902 -3.17384 0
-106.292 -3.17493 0
-104.68 -3.17465 0
-103.071 -3.17513 0
-101.461 -3.17465 0
-99.8504 -3.17429 0
-98.2397 -3.17407 0
-96.6299 -3.17452 0
-95.0192 -3.17413 0
-93.4091 -3.1735 0
-91.7995 -3.1739 0
-90.1894 -3.17371 0
-88.5772 -3.17229 0
-86.9659 -3.17182 0
-85.3551 -3.17295 0
-83.7447 -3.17403 0
-82.1347 -3.17452 0
-80.5247 -3.17395 0
-78.9137 -3.17371 0
-77.3035 -3.1737 0
-75.6936 -3.17376 0
-74.0838 -3.17378 0
-72.474 -3.17325 0
-70.8638 -3.17359 0
-69.2525 -3.17444 0
-67.6407 -3.17317 0
-66.0305 -3.17344 0
-64.4202 -3.17387 0
-62.8098 -3.17257 0
-61.1987 -3.17393 0
-59.5878 -3.17421 0
-57.9772 -3.17494 0
-56.3666 -3.17377 0
-54.7561 -3.17384 0
-53.1461 -3.17309 0
-51.5357 -3.17391 0
-49.9241 -3.17369 0
-48.3127 -3.17236 0
-46.7024 -3.1731 0
-45.0922 -3.17157 0
-43.4831 -3.17228 0
-41.8728 -3.17206 0
-40.2635 -3.17267 0
-38.6521 -3.17324 0
-37.0423 -3.17213 0
-35.4308 -3.17366 0
-33.819 -3.17334 0
-32.2096 -3.17289 0
-30.5983 -3.17269 0
-28.988 -3.17244 0
-27.3769 -3.17192 0
-25.7671 -3.17187 0
-24.1568 -3.17249 0
-22.5459 -3.17197 0
-20.9344 -3.17353 0
-19.3242 -3.17066 0
-17.7147 -3.17024 0
-16.1046 -3.16958 0
-14.4931 -3.1735 0
-12.8824 -3.17081 0
-11.2728 -3.17084 0
-9.66241 -3.17041 0
-8.05163 -3.17126 0
-6.44227 -3.17305 0
-4.83132 -3.17353 0
-3.21946 -3.17227 0
-1.61054 -3.16994 0
0 -3.17151 0
-1095.7 52.3595 0
-1095.36 45.8714 0
-1095.16 39.8473 0
-1094.92 34.1345 0
-1094.68 28.7075 0
-1094.43 23.5603 0
-1094.16 18.7066 0
-1093.81 14.1546 0
-1093.38 9.94455 0
-1092.9 6.11733 0
-1092.38 2.68256 0
-1091.84 -0.36617 0
-1091.28 -3.0422 0
-1090.69 -5.36456 0
-1090.08 -7.35732 0
-1089.44 -9.04869 0
-1088.78 -10.4675 0
-1088.09 -11.6423 0
-1087.36 -12.6001 0
-1086.6 -13.3664 0
-1085.81 -13.9633 0
-1084.97 -14.4106 0
-1084.11 -14.727 0
-1083.21 -14.9273 0
-1082.27 -15.0264 0
-1081.3 -15.0356 0
-1080.3 -14.9659 0
-1079.27 -14.8268 0
-1078.21 -14.6262 0
-1077.13 -14.371 0
-1076.01 -14.0676 0
-1074.87 -13.7213 0
-1073.7 -13.3377 0
-1072.5 -12.9211 0
-1071.29 -12.4752 0
-1070.04 -12.0042 0
-1068.78 -11.5118 0
-1067.49 -11.0016 0
-1066.18 -10.4764 0
-1064.84 -9.93904 0
-1063.49 -9.39267 0
-1062.11 -8.84 0
-1060.72 -8.28335 0
-1059.3 -7.72524 0
-1057.87 -7.1684 0
-1056.42 -6.61477 0
-1054.95 -6.0659 0
-1053.47 -5.52468 0
-1051.96 -4.99205 0
-1050.45 -4.46992 0
-1048.92 -3.95964 0
-1047.37 -3.46266 0
-1045.82 -2.97984 0
-1044.25 -2.51244 0
-1042.66 -2.06159 0
-1041.07 -1.62833 0
-1039.47 -1.21279 0
-1037.86 -0.816371 0
-1036.24 -0.438658 0
-1034.61 -0.0804217 0
-1032.97 0.257987 0
-1031.33 0.576093 0
-1029.68 0.873617 0
-1028.02 1.1509 0
-1026.36 1.40783 0
-1024.69 1.64445 0
-1023.02 1.86102 0
-1021.35 2.05738 0
-1019.67 2.23401 0
-1017.99 2.39119 0
-1016.31 2.52896 0
-1014.62 2.64817 0
-1012.94 2.74962 0
-1011.25 2.83287 0
-1009.57 2.89906 0
-1007.88 2.94792 0
-1006.19 2.98113 0
-1004.5 2.99793 0
-1002.82 2.99984 0
-1001.13 2.98815 0
-999.45 2.96251 0
-997.768 2.92393 0
-996.087 2.87289 0
-994.408 2.81003 0
-992.731 2.73633 0
-991.056 2.65204 0
-989.384 2.55753 0
-987.713 2.45472 0
-986.046 2.34366 0
-984.381 2.22499 0
-982.719 2.09927 0
-981.059 1.96711 0
-979.402 1.82943 0
-977.748 1.68694 0
-976.097 1.53983 0
-974.449 1.38924 0
-972.804 1.23516 0
-971.162 1.07901 0
-969.522 0.920711 0