<?xml version="1.0"?>
<VTKFile type="StructuredGrid"  version="0.1" byte_order="LittleEndian" compressor="vtkZLibDataCompressor">
  <StructuredGrid WholeExtent="0 700 0 30 0 0">
    <Piece Extent="0 700 0 30 0 0">
      <PointData Vectors="Velocity">
        <DataArray type="Float32" Name="Velocity" NumberOfComponents="3" format="ascii">
-1086.34 232.894 0
-1086.53 217.227 0
-1086.77 201.679 0
-1087.05 186.328 0
-1087.34 171.225 0
-1087.67 156.413 0
-1088.06 141.955 0
-1088.51 127.915 0
-1088.99 114.333 0
-1089.5 101.238 0
-1090.03 88.652 0
-1090.55 76.5906 0
-1091.08 65.0677 0
-1091.59 54.0921 0
-1092.07 43.6757 0
-1092.53 33.8309 0
-1092.95 24.5547 0
-1093.24 15.8198 0
-1093.46 7.52621 0
-1093.69 -0.380997 0
-1093.94 -7.87342 0
-1094.18 -14.9406 0
-1094.4 -21.5847 0
-1094.62 -27.8165 0
-1094.82 -33.6405 0
-1095 -39.0661 0
-1095.16 -44.1064 0
-1095.31 -48.7663 0
-1095.44 -53.0571 0
-1095.54 -56.9918 0
-1095.61 -60.5784 0
-1095.66 -63.8281 0
-1095.67 -66.7535 0
-1095.65 -69.3641 0
-1095.59 -71.6703 0
-1095.49 -73.6883 0
-1095.34 -75.4278 0
-1095.16 -76.9021 0
-1094.93 -78.12 0
-1094.65 -79.0985 0
-1094.32 -79.8465 0
-1093.95 -80.3743 0
-1093.53 -80.6951 0
-1093.06 -80.8176 0
-1092.54 -80.7585 0
-1091.97 -80.5192 0
-1091.35 -80.1163 0
-1090.69 -79.5567 0
-1089.98 -78.854 0
-1089.22 -78.0157 0
-1088.41 -77.0479 0
-1087.56 -75.9587 0
-1086.66 -74.7602 0
-1085.72 -73.4625 0
-1084.73 -72.07 0
-1083.7 -70.5911 0
-1082.63 -69.0303 0
-1081.51 -67.3997 0
-1080.36 -65.7021 0
-1079.17 -63.9407 0
-1077.95 -62.1304 0
-1076.68 -60.2714 0
-1075.39 -58.3703 0
-1074.05 -56.4337 0
-1072.68 -54.4648 0
-1071.28 -52.4714 0
-1069.85 -50.4544 0
-1068.39 -48.4191 0
-1066.9 -46.3735 0
-1065.38 -44.3172 0
-1063.84 -42.2551 0
-1062.26 -40.1925 0
-1060.67 -38.1334 0
-1059.05 -36.08 0
-1057.4 -34.0327 0
-1055.74 -31.9963 0
-1054.05 -29.9751 0
-1052.34 -27.972 0
-1050.61 -25.9863 0
-1048.87 -24.0225 0
-1047.11 -22.0814 0
-1045.33 -20.1675 0
-1043.53 -18.2826 0
-1041.72 -16.4238 0
-1039.89 -14.6 0
-1038.06 -12.8067 0
-1036.21 -11.0484 0
-1034.35 -9.32542 0
-1032.47 -7.63803 0
-1030.59 -5.99257 0
-1028.69 -4.38021 0
-1026.79 -2.81252 0
-1024.88 -1.28356 0
-1022.96 0.203347 0
-1021.03 1.64914 0
-1019.1 3.0507 0
-1017.16 4.4085 0
-1015.22 5.72315 0
-1013.27 6.99206 0
-1011.31 8.21801 0
-1009.36 9.40053 0
-1007.39 10.5359 0
-1005.43 11.6261 0
-1003.46 12.6715 0
-1001.5 13.6708 0
-999.526 14.6264 0
-997.557 15.5351 0
-995.584 16.3977 0
-993.615 17.2174 0
-991.644 17.9918 0
-989.674 18.72 0
-987.705 19.4046 0
-985.737 20.0471 0
-983.769 20.6464 0
-981.806 21.2018 0
-979.844 21.7135 0
-977.883 22.1837 0
-975.928 22.6146 0
-973.973 23.0032 0
-972.024 23.3524 0
-970.075 23.6629 0
-968.135 23.9336 0
-966.196 24.1641 0
-964.26 24.3591 0
-962.328 24.5151 0
-960.403 24.6343 0
-958.483 24.7189 0
-956.566 24.7686 0
-954.655 24.7837 0
-952.749 24.7666 0
-950.847 24.7202 0
-948.953 24.6386 0
-947.066 24.5275 0
-945.183 24.387 0
-943.306 24.2184 0
-941.437 24.0194 0
-939.572 23.7941 0
-937.715 23.543 0
-935.862 23.2651 0
-934.018 22.9643 0
-932.178 22.6377 0
-930.344 22.289 0
-928.518 21.9198 0
-926.7 21.5308 0
-924.886 21.1203 0
-923.079 20.6929 0
-921.277 20.2475 0
-919.484 19.7842 0
-917.694 19.3048 0
-915.913 18.8095 0
-914.136 18.3006 0
-912.369 17.7788 0
-910.605 17.2434 0
-908.849 16.6976 0
-907.099 16.1404 0
-905.354 15.5696 0
-903.614 14.9926 0
-901.881 14.4108 0
-900.154 13.821 0
-898.432 13.2217 0
-896.716 12.6166 0
-895.006 12.0084 0
-893.301 11.3938 0
-891.602 10.7754 0
-889.906 10.1565 0
-888.215 9.53344 0
-886.532 8.91109 0
-884.852 8.28568 0
-883.176 7.6601 0
-881.505 7.0377 0
-879.84 6.41551 0
-878.179 5.79616 0
-876.523 5.17818 0
-874.87 4.56358 0
-873.221 3.9543 0
-871.576 3.34804 0
-869.934 2.74751 0
-868.296 2.15058 0
-866.663 1.56134 0
-865.033 0.978543 0
-863.405 0.400535 0
-861.78 -0.167708 0
-860.16 -0.729722 0
-858.542 -1.2827 0
-856.927 -1.82738 0
-855.312 -2.3636 0
-853.703 -2.89143 0
-852.092 -3.40879 0
-850.487 -3.91745 0
-848.883 -4.41549 0
-847.28 -4.90083 0
-845.678 -5.37791 0
-844.081 -5.8444 0
-842.485 -6.30078 0
-840.89 -6.74085 0
-839.296 -7.17203 0
-837.702 -7.59086 0
-836.109 -7.99765 0
-834.519 -8.39277 0
-832.929 -8.77791 0
-831.341 -9.1528 0
-829.75 -9.51222 0
-828.163 -9.85643 0
-826.576 -10.1883 0
-824.987 -10.5121 0
-823.401 -10.8202 0
-821.814 -11.1186 0
-820.23 -11.4031 0
-818.646 -11.6735 0
-817.058 -11.9355 0
-815.473 -12.1822 0
-813.887 -12.416 0
-812.301 -12.636 0
-810.716 -12.8467 0
-809.127 -13.0449 0
-807.539 -13.2309 0
-805.949 -13.4013 0
-804.361 -13.5623 0
-802.772 -13.7124 0
-801.184 -13.851 0
-799.594 -13.9758 0
-798 -14.0908 0
-796.407 -14.1953 0
-794.815 -14.2909 0
-793.221 -14.3712 0
-791.624 -14.4395 0
-790.027 -14.5028 0
-788.432 -14.5518 0
-786.834 -14.5911 0
-785.233 -14.6195 0
-783.63 -14.6377 0
-782.027 -14.6474 0
-780.424 -14.6471 0
-778.821 -14.6359 0
-777.211 -14.6181 0
-775.604 -14.5875 0
-773.993 -14.5563 0
-772.382 -14.5145 0
-770.77 -14.4622 0
-769.155 -14.4011 0
-767.539 -14.3313 0
-765.922 -14.258 0
-764.305 -14.1751 0
-762.684 -14.085 0
-761.064 -13.9889 0
-759.44 -13.8867 0
-757.817 -13.7774 0
-756.191 -13.6614 0
-754.563 -13.5403 0
-752.931 -13.4134 0
-751.298 -13.2824 0
-749.665 -13.145 0
-748.031 -13.0029 0
-746.397 -12.8565 0
-744.759 -12.7071 0
-743.119 -12.5501 0
-741.481 -12.3911 0
-739.839 -12.2278 0
-738.196 -12.0618 0
-736.552 -11.8941 0
-734.907 -11.7238 0
-733.257 -11.5486 0
-731.606 -11.371 0
-729.957 -11.1874 0
-728.306 -11.0072 0
-726.65 -10.822 0
-724.995 -10.6329 0
-723.34 -10.4459 0
-721.679 -10.2581 0
-720.022 -10.0682 0
-718.362 -9.88076 0
-716.702 -9.68798 0
-715.04 -9.49443 0
-713.372 -9.30189 0
-711.705 -9.10827 0
-710.038 -8.91213 0
-708.372 -8.71962 0
-706.705 -8.52476 0
-705.038 -8.3363 0
-703.365 -8.14324 0
-701.694 -7.95264 0
-700.022 -7.76176 0
-698.345 -7.57335 0
-696.671 -7.38387 0
-694.994 -7.19605 0
-693.318 -7.0091 0
-691.642 -6.82803 0
-689.962 -6.64443 0
-688.282 -6.46418 0
-686.601 -6.28484 0
-684.925 -6.11094 0
-683.241 -5.93562 0
-681.561 -5.76484 0
-679.878 -5.59469 0
-678.193 -5.42464 0
-676.505 -5.26188 0
-674.82 -5.09833 0
-673.135 -4.93742 0
-671.449 -4.78116 0
-669.762 -4.62284 0
-668.074 -4.4748 0
-666.388 -4.32632 0
-664.699 -4.18334 0
-663.01 -4.03799 0
-661.321 -3.89895 0
-659.631 -3.76291 0
-657.942 -3.63238 0
-656.253 -3.50216 0
-654.563 -3.37633 0
-652.87 -3.25163 0
-651.18 -3.1335 0
-649.488 -3.01843 0
-647.797 -2.90657 0
-646.104 -2.79633 0
-644.411 -2.69075 0
-642.719 -2.58819 0
-641.027 -2.48746 0
-639.335 -2.39385 0
-637.643 -2.29842 0
-635.949 -2.21239 0
-634.256 -2.12962 0
-632.564 -2.04681 0
-630.872 -1.96998 0
-629.178 -1.89727 0
-627.486 -1.82833 0
-625.793 -1.76221 0
-624.101 -1.70141 0
-622.409 -1.63831 0
-620.717 -1.58256 0
-619.026 -1.53183 0
-617.334 -1.48392 0
-615.641 -1.43465 0
-613.951 -1.39089 0
-612.258 -1.35458 0
-610.568 -1.31519 0
-608.879 -1.27982 0
-607.189 -1.255 0
-605.495 -1.23128 0
-603.808 -1.21252 0
-602.121 -1.19121 0
-600.429 -1.1731 0
-598.743 -1.15716 0
-597.048 -1.14462 0
-595.363 -1.14075 0
-593.671 -1.13602 0
-591.982 -1.13771 0
-590.298 -1.13969 0
-588.613 -1.14198 0
-586.921 -1.14815 0
-585.235 -1.15781 0
-583.551 -1.16874 0
-581.863 -1.17918 0
-580.178 -1.19767 0
-578.492 -1.2207 0
-576.807 -1.24339 0
-575.125 -1.26451 0
-573.444 -1.29231 0
-571.758 -1.32328 0
-570.074 -1.34969 0
-568.393 -1.38697 0
-566.715 -1.41957 0
-565.035 -1.45599 0
-563.355 -1.49302 0
-561.676 -1.52925 0
-559.991 -1.56929 0
-558.311 -1.61706 0
-556.632 -1.66039 0
-554.953 -1.70872 0
-553.272 -1.75419 0
-551.595 -1.80374 0
-549.921 -1.85887 0
-548.246 -1.90898 0
-546.568 -1.96416 0
-544.892 -2.01949 0
-543.215 -2.07626 0
-541.537 -2.13315 0
-539.862 -2.19377 0
-538.186 -2.24769 0
-536.512 -2.30967 0
-534.841 -2.37081 0
-533.166 -2.43493 0
-531.493 -2.49721 0
-529.817 -2.56473 0
-528.15 -2.62784 0
-526.482 -2.69128 0
-524.811 -2.75543 0
-523.139 -2.82184 0
-521.468 -2.88651 0
-519.792 -2.95255 0
-518.123 -3.01771 0
-516.452 -3.08739 0
-514.786 -3.15367 0
-513.112 -3.22145 0
-511.444 -3.28582 0
-509.777 -3.35693 0
-508.107 -3.42819 0
-506.44 -3.49287 0
-504.771 -3.56562 0
-503.106 -3.63137 0
-501.436 -3.69598 0
-499.768 -3.77184 0
-498.101 -3.83934 0
-496.439 -3.90035 0
-494.772 -3.96775 0
-493.107 -4.03555 0
-491.443 -4.10117 0
-489.775 -4.16339 0
-488.111 -4.22961 0
-486.444 -4.28575 0
-484.78 -4.35555 0
-483.115 -4.41409 0
-481.453 -4.48033 0
-479.791 -4.54622 0
-478.13 -4.60936 0
-476.465 -4.66579 0
-474.801 -4.7218 0
-473.139 -4.78406 0
-471.473 -4.84412 0
-469.809 -4.90353 0
-468.15 -4.96143 0
-466.488 -5.0167 0
-464.825 -5.07145 0
-463.158 -5.1225 0
-461.499 -5.17649 0
-459.834 -5.22806 0
-458.171 -5.28482 0
-456.511 -5.33929 0
-454.851 -5.39258 0
-453.188 -5.43977 0
-451.526 -5.48936 0
-449.861 -5.53397 0
-448.2 -5.58112 0
-446.536 -5.62803 0
-444.874 -5.67235 0
-443.213 -5.71832 0
-441.552 -5.76114 0
-439.894 -5.79925 0
-438.233 -5.83881 0
-436.57 -5.87648 0
-434.911 -5.91482 0
-433.252 -5.95028 0
-431.592 -5.99679 0
-429.935 -6.03134 0
-428.27 -6.06776 0
-426.614 -6.10044 0
-424.956 -6.13111 0
-423.289 -6.16142 0
-421.625 -6.19238 0
-419.971 -6.21718 0
-418.31 -6.24888 0
-416.648 -6.27638 0
-414.987 -6.30509 0
-413.33 -6.32548 0
-411.663 -6.35013 0
-410.003 -6.37501 0
-408.34 -6.39424 0
-406.683 -6.4092 0
-405.02 -6.42398 0
-403.361 -6.44526 0
-401.696 -6.47019 0
-400.033 -6.48629 0
-398.371 -6.50236 0
-396.707 -6.51638 0
-395.043 -6.5332 0
-393.383 -6.54665 0
-391.722 -6.56109 0
-390.064 -6.56764 0
-388.402 -6.57089 0
-386.744 -6.58254 0
-385.085 -6.59545 0
-383.415 -6.6043 0
-381.754 -6.61186 0
-380.097 -6.61796 0
-378.433 -6.62411 0
-376.77 -6.62654 0
-375.103 -6.62756 0
-373.445 -6.63604 0
-371.781 -6.63807 0
-370.119 -6.64238 0
-368.455 -6.64424 0
-366.795 -6.64839 0
-365.134 -6.64205 0
-363.472 -6.64908 0
-361.809 -6.64328 0
-360.148 -6.64153 0
-358.485 -6.63958 0
-356.821 -6.63462 0
-355.156 -6.62654 0
-353.494 -6.62391 0
-351.825 -6.62148 0
-350.161 -6.61678 0
-348.498 -6.61837 0
-346.827 -6.60508 0
-345.161 -6.59755 0
-343.497 -6.59308 0
-341.833 -6.58782 0
-340.171 -6.57758 0
-338.505 -6.57212 0
-336.843 -6.56226 0
-335.179 -6.54909 0
-333.51 -6.54735 0
-331.845 -6.53065 0
-330.183 -6.51858 0
-328.518 -6.51052 0
-326.85 -6.50204 0
-325.188 -6.4875 0
-323.524 -6.4733 0
-321.858 -6.45995 0
-320.192 -6.45417 0
-318.519 -6.43944 0
-316.851 -6.42946 0
-315.192 -6.41783 0
-313.526 -6.40073 0
-311.855 -6.38876 0
-310.188 -6.37697 0
-308.524 -6.361 0
-306.855 -6.34401 0
-305.187 -6.3279 0
-303.52 -6.31671 0
-301.855 -6.30746 0
-300.184 -6.29349 0
-298.516 -6.28049 0
-296.848 -6.27203 0
-295.182 -6.25482 0
-293.515 -6.24141 0
-291.853 -6.22917 0
-290.183 -6.21027 0
-288.518 -6.19924 0
-286.852 -6.18572 0
-285.183 -6.16963 0
-283.511 -6.1582 0
-281.844 -6.14482 0
-280.176 -6.12955 0
-278.508 -6.11333 0
-276.838 -6.10063 0
-275.173 -6.08855 0
-273.508 -6.07722 0
-271.837 -6.06559 0
-270.168 -6.05528 0
-268.504 -6.03485 0
-266.834 -6.02495 0
-265.166 -6.00777 0
-263.495 -5.99734 0
-261.825 -5.98782 0
-260.152 -5.97246 0
-258.483 -5.96059 0
-256.814 -5.94707 0
-255.148 -5.94109 0
-253.476 -5.92759 0
-251.809 -5.91872 0
-250.146 -5.90604 0
-248.474 -5.89705 0
-246.807 -5.88022 0
-245.135 -5.87281 0
-243.473 -5.85028 0
-241.798 -5.8415 0
-240.13 -5.83494 0
-238.463 -5.82691 0
-236.792 -5.82202 0
-235.122 -5.80954 0
-233.453 -5.79949 0
-231.784 -5.78562 0
-230.113 -5.78145 0
-228.444 -5.7772 0
-226.778 -5.76898 0
-225.108 -5.75983 0
-223.437 -5.75481 0
-221.768 -5.74427 0
-220.091 -5.75079 0
-218.429 -5.7407 0
-216.763 -5.72361 0
-215.089 -5.72122 0
-213.417 -5.71294 0
-211.756 -5.71529 0
-210.083 -5.70647 0
-208.416 -5.70774 0
-206.745 -5.69756 0
-205.078 -5.69263 0
-203.41 -5.68614 0
-201.74 -5.68126 0
-200.071 -5.68042 0
-198.402 -5.68008 0
-196.735 -5.67758 0
-195.071 -5.67217 0
-193.401 -5.67117 0
-191.735 -5.66603 0
-190.063 -5.6701 0
-188.379 -5.66412 0
-186.714 -5.65575 0
-185.042 -5.65404 0
-183.375 -5.6464 0
-181.702 -5.65171 0
-180.039 -5.65466 0
-178.37 -5.66 0
-176.706 -5.65707 0
-175.04 -5.65006 0
-173.364 -5.65577 0
-171.699 -5.65247 0
-170.033 -5.65148 0
-168.365 -5.66394 0
-166.693 -5.66807 0
-165.026 -5.66794 0
-163.36 -5.66099 0
-161.692 -5.66536 0
-160.022 -5.66226 0
-158.352 -5.6667 0
-156.686 -5.67662 0
-155.018 -5.67804 0
-153.349 -5.68026 0
-151.681 -5.68038 0
-150.015 -5.67489 0
-148.351 -5.68686 0
-146.678 -5.69357 0
-145.01 -5.70017 0
-143.342 -5.70346 0
-141.67 -5.70746 0
-140.002 -5.70921 0
-138.333 -5.71358 0
-136.664 -5.71241 0
-134.997 -5.72624 0
-133.329 -5.72875 0
-131.664 -5.74172 0
-129.994 -5.74104 0
-128.328 -5.73948 0
-126.656 -5.74271 0
-124.985 -5.75197 0
-123.318 -5.76128 0
-121.654 -5.76268 0
-119.979 -5.77137 0
-118.315 -5.77274 0
-116.651 -5.77729 0
-114.984 -5.78409 0
-113.315 -5.78845 0
-111.645 -5.79324 0
-109.978 -5.79928 0
-108.312 -5.80519 0
-106.642 -5.82028 0
-104.98 -5.82786 0
-103.312 -5.83009 0
-101.641 -5.83984 0
-99.9735 -5.83974 0
-98.3084 -5.84417 0
-96.6433 -5.84382 0
-94.9706 -5.86067 0
-93.2999 -5.86845 0
-91.6351 -5.87068 0
-89.9705 -5.87749 0
-88.3078 -5.88066 0
-86.6431 -5.88767 0
-84.9764 -5.88879 0
-83.3129 -5.89265 0
-81.6414 -5.89332 0
-79.9771 -5.89634 0
-78.3106 -5.90818 0
-76.6388 -5.91637 0
-74.9682 -5.92044 0
-73.3048 -5.92109 0
-71.637 -5.93016 0
-69.9698 -5.93548 0
-68.3064 -5.94048 0
-66.6446 -5.94101 0
-64.9733 -5.94989 0
-63.302 -5.96131 0
-61.6364 -5.9696 0
-59.975 -5.96833 0
-58.3149 -5.97688 0
-56.6405 -5.97814 0
-54.9719 -5.97631 0
-53.3103 -5.9842 0
-51.6421 -5.99332 0
-49.9808 -5.99273 0
-48.3134 -5.9982 0
-46.6468 -6.00411 0
-44.9835 -6.00086 0
-43.3165 -6.00704 0
-41.65 -6.01395 0
-39.9864 -6.02655 0
-38.3213 -6.02583 0
-36.6553 -6.0333 0
-34.982 -6.03191 0
-33.3193 -6.02682 0
-31.655 -6.03174 0
-29.9861 -6.03574 0
-28.323 -6.04195 0
-26.6531 -6.03773 0
-24.991 -6.04101 0
-23.33 -6.0372 0
-21.6631 -6.04999 0
-19.9935 -6.04783 0
-18.3264 -6.05075 0
-16.6564 -6.04854 0
-14.9914 -6.05382 0
-13.3253 -6.05543 0
-11.6637 -6.05935 0
-10.0016 -6.05935 0
-8.33522 -6.05629 0
-6.66843 -6.05366 0
-4.9981 -6.05207 0
-3.33246 -6.05798 0
-1.6684 -6.05743 0
0 -6.061 0
-1102.01 233.11 0
-1102.1 217.405 0
-1102.18 201.837 0
-1102.25 186.474 0
-1102.3 171.357 0
-1102.33 156.519 0
-1102.35 142.027 0
-1102.35 127.95 0
-1102.35 114.334 0
-1102.36 101.213 0
-1102.36 88.6088 0
-1102.35 76.5395 0
-1102.32 65.0168 0
-1102.26 54.0499 0
-1102.17 43.6499 0
-1102.04 33.8253 0
-1101.87 24.5821 0
-1101.71 15.873 0
-1101.58 7.57997 0
-1101.42 -0.332028 0
-1101.25 -7.82606 0
-1101.06 -14.8948 0
-1100.87 -21.5392 0
-1100.68 -27.7687 0
-1100.48 -33.5892 0
-1100.27 -39.0095 0
-1100.05 -44.0412 0
-1099.83 -48.6916 0
-1099.59 -52.9707 0
-1099.34 -56.8895 0
-1099.07 -60.457 0
-1098.78 -63.6858 0
-1098.47 -66.585 0
-1098.14 -69.1681 0
-1097.78 -71.4458 0
-1097.39 -73.4298 0
-1096.98 -75.1332 0
-1096.53 -76.571 0
-1096.05 -77.7522 0
-1095.53 -78.6903 0
-1094.98 -79.3961 0
-1094.39 -79.8816 0
-1093.77 -80.1599 0
-1093.11 -80.2419 0
-1092.4 -80.1355 0
-1091.66 -79.8551 0
-1090.89 -79.4084 0
-1090.07 -78.8071 0
-1089.22 -78.0614 0
-1088.32 -77.1788 0
-1087.39 -76.1701 0
-1086.43 -75.0402 0
-1085.42 -73.8012 0
-1084.38 -72.4619 0
-1083.3 -71.0289 0
-1082.19 -69.5109 0
-1081.04 -67.9123 0
-1079.86 -66.2441 0
-1078.65 -64.5095 0
-1077.4 -62.7154 0
-1076.12 -60.8694 0
-1074.81 -58.9765 0
-1073.47 -57.044 0
-1072.11 -55.0745 0
-1070.71 -53.0739 0
-1069.29 -51.05 0
-1067.84 -49.0048 0
-1066.36 -46.9425 0
-1064.86 -44.8688 0
-1063.33 -42.7873 0
-1061.78 -40.7003 0
-1060.21 -38.614 0
-1058.62 -36.5323 0
-1057 -34.4557 0
-1055.37 -32.3876 0
-1053.72 -30.3298 0
-1052.04 -28.2892 0
-1050.35 -26.266 0
-1048.65 -24.2635 0
-1046.93 -22.2832 0
-1045.19 -20.3261 0
-1043.43 -18.397 0
-1041.67 -16.4968 0
-1039.89 -14.6244 0
-1038.09 -12.787 0
-1036.29 -10.9817 0
-1034.47 -9.21074 0
-1032.65 -7.47733 0
-1030.81 -5.7802 0
-1028.96 -4.12197 0
-1027.11 -2.50522 0
-1025.25 -0.927017 0
-1023.38 0.61026 0
-1021.5 2.10327 0
-1019.61 3.55534 0
-1017.73 4.96331 0
-1015.83 6.3261 0
-1013.93 7.64649 0
-1012.02 8.92038 0
-1010.11 10.1503 0
-1008.2 11.3351 0
-1006.29 12.473 0
-1004.37 13.5665 0
-1002.45 14.616 0
-1000.52 15.6157 0
-998.6 16.5713 0
-996.674 17.4814 0
-994.749 18.3455 0
-992.821 19.1651 0
-990.896 19.9379 0
-988.969 20.6662 0
-987.043 21.35 0
-985.118 21.9916 0
-983.196 22.5883 0
-981.275 23.1416 0
-979.356 23.6523 0
-977.436 24.1215 0
-975.521 24.5486 0
-973.607 24.934 0
-971.696 25.2807 0
-969.79 25.5868 0
-967.886 25.8532 0
-965.983 26.081 0
-964.086 26.2717 0
-962.193 26.4223 0
-960.302 26.538 0
-958.417 26.6198 0
-956.534 26.6642 0
-954.656 26.6755 0
-952.782 26.6539 0
-950.914 26.5994 0
-949.051 26.514 0
-947.192 26.3966 0
-945.339 26.2503 0
-943.491 26.0762 0
-941.649 25.8736 0
-939.811 25.642 0
-937.978 25.3848 0
-936.151 25.1012 0
-934.33 24.7927 0
-932.513 24.461 0
-930.702 24.1081 0
-928.897 23.7326 0
-927.097 23.336 0
-925.303 22.9211 0
-923.513 22.4869 0
-921.73 22.0354 0
-919.953 21.5667 0
-918.181 21.0809 0
-916.413 20.5804 0
-914.652 20.0667 0
-912.895 19.5384 0
-911.144 18.9963 0
-909.399 18.4437 0
-907.66 17.8818 0
-905.924 17.3072 0
-904.194 16.7242 0
-902.468 16.1365 0
-900.747 15.541 0
-899.033 14.9368 0
-897.322 14.3273 0
-895.614 13.7129 0
-893.913 13.0936 0
-892.217 12.4712 0
-890.525 11.8465 0
-888.837 11.2196 0
-887.154 10.5916 0
-885.474 9.96203 0
-883.799 9.3329 0
-882.127 8.70625 0
-880.46 8.08005 0
-878.795 7.45566 0
-877.136 6.83531 0
-875.479 6.21682 0
-873.826 5.60227 0
-872.176 4.99357 0
-870.529 4.38844 0
-868.886 3.78845 0
-867.246 3.19589 0
-865.61 2.60975 0
-863.975 2.03101 0
-862.345 1.45838 0
-860.715 0.892518 0
-859.091 0.33789 0
-857.465 -0.208699 0
-855.842 -0.748375 0
-854.222 -1.27856 0
-852.604 -1.79693 0
-850.987 -2.3078 0
-849.373 -2.80645 0
-847.76 -3.29539 0
-846.149 -3.77416 0
-844.54 -4.24316 0
-842.932 -4.69896 0
-841.325 -5.14157 0
-839.719 -5.57297 0
-838.116 -5.99426 0
-836.511 -6.40181 0
-834.908 -6.7987 0
-833.306 -7.18489 0
-831.703 -7.55986 0
-830.102 -7.91936 0
-828.501 -8.26357 0
-826.902 -8.59768 0
-825.303 -8.92141 0
-823.704 -9.23102 0
-822.107 -9.5283 0
-820.508 -9.81271 0
-818.909 -10.0844 0
-817.31 -10.3439 0
-815.711 -10.5912 0
-814.114 -10.8248 0
-812.515 -11.0467 0
-810.918 -11.2563 0
-809.317 -11.4524 0
-807.719 -11.6385 0
-806.118 -11.8081 0
-804.518 -11.9716 0
-802.919 -12.1198 0
-801.315 -12.2563 0
-799.712 -12.3815 0
-798.111 -12.4973 0
-796.507 -12.6 0
-794.903 -12.6941 0
-793.297 -12.7744 0
-791.692 -12.8417 0
-790.085 -12.903 0
-788.476 -12.9498 0
-786.867 -12.9894 0
-785.256 -13.0156 0
-783.645 -13.0348 0
-782.032 -13.0424 0
-780.421 -13.0415 0
-778.804 -13.0289 0
-777.19 -13.0084 0
-775.573 -12.9796 0
-773.955 -12.9449 0
-772.333 -12.9019 0
-770.714 -12.8477 0
-769.092 -12.7855 0
-767.468 -12.715 0
-765.844 -12.6409 0
-764.218 -12.5561 0
-762.592 -12.4637 0
-760.964 -12.3664 0
-759.333 -12.2643 0
-757.703 -12.1529 0
-756.072 -12.0347 0
-754.437 -11.9112 0
-752.802 -11.7846 0
-751.165 -11.6509 0
-749.527 -11.5126 0
-747.888 -11.3695 0
-746.248 -11.2209 0
-744.607 -11.0694 0
-742.964 -10.9128 0
-741.32 -10.7515 0
-739.675 -10.5867 0
-738.029 -10.4205 0
-736.381 -10.25 0
-734.731 -10.0784 0
-733.08 -9.90109 0
-731.428 -9.72294 0
-729.776 -9.54019 0
-728.121 -9.35544 0
-726.467 -9.16975 0
-724.812 -8.9814 0
-723.153 -8.79178 0
-721.494 -8.60196 0
-719.832 -8.41247 0
-718.17 -8.22128 0
-716.509 -8.02933 0
-714.844 -7.83404 0
-713.181 -7.64003 0
-711.514 -7.44427 0
-709.847 -7.24929 0
-708.182 -7.05565 0
-706.514 -6.85935 0
-704.845 -6.66928 0
-703.174 -6.47459 0
-701.502 -6.28318 0
-699.831 -6.09199 0
-698.157 -5.90173 0
-696.483 -5.71242 0
-694.81 -5.52459 0
-693.135 -5.33834 0
-691.46 -5.15337 0
-689.784 -4.97023 0
-688.106 -4.78807 0
-686.428 -4.61034 0
-684.748 -4.43231 0
-683.068 -4.25721 0
-681.388 -4.08602 0
-679.708 -3.91441 0
-678.025 -3.74379 0
-676.343 -3.57812 0
-674.66 -3.4184 0
-672.976 -3.25572 0
-671.293 -3.09719 0
-669.609 -2.94307 0
-667.928 -2.7911 0
-666.241 -2.64354 0
-664.556 -2.49787 0
-662.869 -2.35467 0
-661.184 -2.21379 0
-659.497 -2.0794 0
-657.81 -1.94714 0
-656.123 -1.817 0
-654.435 -1.68917 0
-652.749 -1.5664 0
-651.06 -1.4462 0
-649.373 -1.33223 0
-647.684 -1.21719 0
-645.995 -1.10866 0
-644.307 -1.00203 0
-642.618 -0.900676 0
-640.929 -0.801338 0
-639.239 -0.705781 0
-637.552 -0.612797 0
-635.862 -0.523717 0
-634.173 -0.440796 0
-632.483 -0.360089 0
-630.795 -0.282725 0
-629.107 -0.208054 0
-627.417 -0.140119 0
-625.729 -0.0732471 0
-624.041 -0.0141672 0
-622.352 0.0488435 0
-620.666 0.104889 0
-618.976 0.156823 0
-617.287 0.205324 0
-615.595 0.252866 0
-613.909 0.295384 0
-612.222 0.333591 0
-610.532 0.369793 0
-608.846 0.404429 0
-607.161 0.431347 0
-605.474 0.454206 0
-603.788 0.474804 0
-602.098 0.495278 0
-600.412 0.513888 0
-598.726 0.525468 0
-597.04 0.537912 0
-595.356 0.542799 0
-593.67 0.54745 0
-591.985 0.546932 0
-590.301 0.544071 0
-588.615 0.541015 0
-586.931 0.535101 0
-585.245 0.52771 0
-583.561 0.513144 0
-581.879 0.498594 0
-580.195 0.483807 0
-578.514 0.46099 0
-576.831 0.43476 0
-575.148 0.413765 0
-573.471 0.388533 0
-571.79 0.359669 0
-570.111 0.328743 0
-568.43 0.290477 0
-566.75 0.255533 0
-565.07 0.223414 0
-563.391 0.183285 0
-561.715 0.149003 0
-560.037 0.1085 0
-558.356 0.0603472 0
-556.677 0.0165152 0
-555 -0.0308642 0
-553.325 -0.0781774 0
-551.649 -0.130104 0
-549.972 -0.185797 0
-548.298 -0.235691 0
-546.624 -0.288466 0
-544.945 -0.345354 0
-543.269 -0.403375 0
-541.594 -0.461006 0
-539.921 -0.519407 0
-538.247 -0.577663 0
-536.573 -0.637924 0
-534.901 -0.700685 0
-533.229 -0.7652 0
-531.558 -0.826219 0
-529.886 -0.89376 0
-528.215 -0.958495 0
-526.546 -1.02339 0
-524.875 -1.08721 0
-523.204 -1.15181 0
-521.531 -1.21758 0
-519.861 -1.28423 0
-518.191 -1.35126 0
-516.518 -1.41918 0
-514.85 -1.48514 0
-513.18 -1.55336 0
-511.512 -1.62158 0
-509.844 -1.69248 0
-508.177 -1.76113 0
-506.507 -1.82807 0
-504.839 -1.89669 0
-503.17 -1.96394 0
-501.506 -2.03495 0
-499.838 -2.10506 0
-498.17 -2.17337 0
-496.505 -2.23988 0
-494.839 -2.30388 0
-493.173 -2.3719 0
-491.507 -2.43688 0
-489.842 -2.49936 0
-488.173 -2.56232 0
-486.507 -2.6282 0
-484.844 -2.69103 0
-483.181 -2.75397 0
-481.516 -2.82071 0
-479.853 -2.88313 0
-478.188 -2.94469 0
-476.524 -3.00583 0
-474.858 -3.06386 0
-473.197 -3.12196 0
-471.532 -3.18146 0
-469.87 -3.24324 0
-468.206 -3.2968 0
-466.544 -3.35533 0
-464.879 -3.40848 0
-463.214 -3.46183 0
-461.551 -3.51813 0
-459.888 -3.5699 0
-458.226 -3.6262 0
-456.565 -3.67886 0
-454.899 -3.73333 0
-453.238 -3.77739 0
-451.573 -3.82677 0
-449.911 -3.87404 0
-448.246 -3.92188 0
-446.584 -3.96607 0
-444.922 -4.0147 0
-443.26 -4.05912 0
-441.595 -4.10084 0
-439.933 -4.14268 0
-438.271 -4.17994 0
-436.611 -4.21754 0
-434.951 -4.25708 0
-433.292 -4.29529 0
-431.631 -4.33516 0
-429.968 -4.37191 0
-428.307 -4.40884 0
-426.644 -4.44093 0
-424.98 -4.46948 0
-423.319 -4.50379 0
-421.657 -4.5343 0
-419.995 -4.56241 0
-418.337 -4.58994 0
-416.672 -4.61782 0
-415.01 -4.64216 0
-413.347 -4.66744 0
-411.687 -4.69205 0
-410.025 -4.7111 0
-408.366 -4.73599 0
-406.704 -4.75009 0
-405.041 -4.76678 0
-403.377 -4.78621 0
-401.715 -4.80921 0
-400.052 -4.82434 0
-398.385 -4.84015 0
-396.723 -4.85854 0
-395.06 -4.87344 0
-393.396 -4.88909 0
-391.734 -4.8994 0
-390.073 -4.90776 0
-388.414 -4.91957 0
-386.755 -4.92759 0
-385.088 -4.93283 0
-383.426 -4.9432 0
-381.765 -4.95162 0
-380.104 -4.95685 0
-378.438 -4.96058 0
-376.775 -4.96562 0
-375.112 -4.97234 0
-373.447 -4.97325 0
-371.78 -4.9792 0
-370.122 -4.98394 0
-368.462 -4.98554 0
-366.797 -4.98611 0
-365.134 -4.98508 0
-363.47 -4.98375 0
-361.804 -4.98319 0
-360.142 -4.98205 0
-358.481 -4.97854 0
-356.816 -4.97021 0
-355.149 -4.96852 0
-353.485 -4.96077 0
-351.822 -4.95697 0
-350.157 -4.95663 0
-348.491 -4.95042 0
-346.823 -4.9433 0
-345.158 -4.93524 0
-343.496 -4.9338 0
-341.831 -4.92729 0
-340.165 -4.91762 0
-338.5 -4.90617 0
-336.837 -4.89857 0
-335.168 -4.88412 0
-333.503 -4.87953 0
-331.837 -4.8704 0
-330.171 -4.85954 0
-328.506 -4.84657 0
-326.84 -4.83487 0
-325.174 -4.82687 0
-323.508 -4.81103 0
-321.845 -4.79878 0
-320.18 -4.78904 0
-318.513 -4.77655 0
-316.847 -4.76414 0
-315.176 -4.75529 0
-313.511 -4.73939 0
-311.845 -4.72624 0
-310.178 -4.7118 0
-308.508 -4.69539 0
-306.841 -4.67913 0
-305.177 -4.6651 0
-303.506 -4.65482 0
-301.84 -4.64309 0
-300.172 -4.62992 0
-298.504 -4.61606 0
-296.837 -4.6034 0
-295.169 -4.58898 0
-293.503 -4.57351 0
-291.832 -4.56369 0
-290.169 -4.54997 0
-288.502 -4.53734 0
-286.835 -4.521 0
-285.166 -4.50429 0
-283.497 -4.49331 0
-281.836 -4.47759 0
-280.163 -4.46209 0
-278.493 -4.44606 0
-276.829 -4.43163 0
-275.158 -4.42442 0
-273.491 -4.41005 0
-271.824 -4.39675 0
-270.153 -4.38645 0
-268.484 -4.36605 0
-266.818 -4.35978 0
-265.152 -4.3416 0
-263.482 -4.32957 0
-261.812 -4.32144 0
-260.141 -4.30754 0
-258.473 -4.29625 0
-256.808 -4.28638 0
-255.137 -4.27147 0
-253.47 -4.26221 0
-251.797 -4.25291 0
-250.132 -4.24324 0
-248.462 -4.22877 0
-246.793 -4.22007 0
-245.125 -4.20371 0
-243.459 -4.18683 0
-241.79 -4.17941 0
-240.121 -4.16834 0
-238.457 -4.1614 0
-236.786 -4.15401 0
-235.115 -4.14382 0
-233.444 -4.13304 0
-231.775 -4.12181 0
-230.105 -4.11707 0
-228.439 -4.10879 0
-226.765 -4.10183 0
-225.1 -4.09481 0
-223.434 -4.0887 0
-221.765 -4.07986 0
-220.094 -4.08102 0
-218.422 -4.07041 0
-216.756 -4.06261 0
-215.087 -4.04939 0
-213.419 -4.04882 0
-211.747 -4.04755 0
-210.081 -4.04211 0
-208.41 -4.03773 0
-206.74 -4.03668 0
-205.071 -4.02653 0
-203.401 -4.0211 0
-201.735 -4.01631 0
-200.068 -4.01477 0
-198.4 -4.01057 0
-196.732 -4.01374 0
-195.065 -4.00622 0
-193.393 -4.00263 0
-191.725 -3.99896 0
-190.054 -4 0
-188.382 -3.99466 0
-186.711 -3.9895 0
-185.042 -3.98875 0
-183.376 -3.98088 0
-181.709 -3.98793 0
-180.043 -3.98974 0
-178.372 -3.99115 0
-176.7 -3.98485 0
-175.033 -3.98574 0
-173.365 -3.98666 0
-171.696 -3.98546 0
-170.033 -3.9921 0
-168.371 -3.99647 0
-166.701 -3.99572 0
-165.026 -4.0027 0
-163.359 -4.00068 0
-161.69 -3.9988 0
-160.024 -3.99827 0
-158.359 -4.00418 0
-156.688 -4.01235 0
-155.02 -4.00897 0
-153.349 -4.00975 0
-151.682 -4.01493 0
-150.015 -4.01508 0
-148.351 -4.02104 0
-146.687 -4.02693 0
-145.017 -4.03477 0
-143.346 -4.03504 0
-141.678 -4.0384 0
-140.004 -4.04361 0
-138.336 -4.04889 0
-136.67 -4.051 0
-135.003 -4.05579 0
-133.335 -4.06492 0
-131.669 -4.07102 0
-129.999 -4.07915 0
-128.328 -4.07212 0
-126.659 -4.07596 0
-124.998 -4.08517 0
-123.326 -4.09042 0
-121.655 -4.09901 0
-119.992 -4.10613 0
-118.322 -4.10927 0
-116.661 -4.11796 0
-114.991 -4.11958 0
-113.322 -4.1221 0
-111.656 -4.1266 0
-109.989 -4.1342 0
-108.321 -4.1407 0
-106.654 -4.15653 0
-104.988 -4.16133 0
-103.318 -4.16908 0
-101.652 -4.17234 0
-99.9811 -4.17333 0
-98.3176 -4.1763 0
-96.6455 -4.17994 0
-94.9751 -4.19239 0
-93.3089 -4.2017 0
-91.6413 -4.2046 0
-89.9712 -4.21022 0
-88.3098 -4.22032 0
-86.6474 -4.22145 0
-84.9793 -4.22431 0
-83.3114 -4.22987 0
-81.644 -4.23182 0
-79.9761 -4.23725 0
-78.3093 -4.24274 0
-76.6422 -4.25057 0
-74.9768 -4.25783 0
-73.3116 -4.25814 0
-71.6424 -4.26546 0
-69.9795 -4.27335 0
-68.3106 -4.2783 0
-66.6457 -4.27903 0
-64.9777 -4.28478 0
-63.3137 -4.29561 0
-61.646 -4.30595 0
-59.9798 -4.30501 0
-58.3133 -4.30906 0
-56.6494 -4.3126 0
-54.9807 -4.31633 0
-53.3138 -4.3231 0
-51.6457 -4.32727 0
-49.9766 -4.32804 0
-48.3158 -4.33593 0
-46.6518 -4.335 0
-44.9854 -4.33919 0
-43.3206 -4.34667 0
-41.657 -4.35125 0
-39.9869 -4.35868 0
-38.3204 -4.36102 0
-36.6535 -4.37139 0
-34.9898 -4.36719 0
-33.3207 -4.36588 0
-31.6559 -4.37097 0
-29.9885 -4.37431 0
-28.3215 -4.37721 0
-26.6555 -4.37311 0
-24.9943 -4.37906 0
-23.3324 -4.37378 0
-21.6613 -4.37871 0
-19.996 -4.38225 0
-18.3305 -4.38415 0
-16.662 -4.38495 0
-14.9968 -4.39099 0
-13.3305 -4.39036 0
-11.6671 -4.39484 0
-10.0014 -4.39583 0
-8.33154 -4.39164 0
-6.66712 -4.39344 0
-5.00097 -4.38889 0
-3.33588 -4.39454 0
-1.66754 -4.39615 0
0 -4.39454 0
-1117.91 233.622 0
-1117.64 217.756 0
-1117.5 202.2 0
-1117.33 186.859 0
-1117.1 171.765 0
-1116.82 156.959 0
-1116.48 142.491 0
-1116.08 128.423 0
-1115.65 114.808 0
-1115.18 101.687 0
-1114.68 89.0855 0
-1114.16 77.0226 0
-1113.6 65.5125 0
-1113.01 54.5635 0
-1112.38 44.1848 0
-1111.72 34.3811 0
-1111.06 25.1271 0
-1110.44 16.364 0
-1109.84 8.04675 0
-1109.27 0.147613 0
-1108.67 -7.34216 0
-1108.07 -14.4119 0
-1107.47 -21.063 0
-1106.86 -27.2962 0
-1106.25 -33.1222 0
-1105.65 -38.5465 0
-1105.04 -43.5791 0
-1104.43 -48.2283 0
-1103.83 -52.5058 0
-1103.22 -56.4202 0
-1102.6 -59.9802 0
-1101.97 -63.198 0
-1101.34 -66.0855 0
-1100.69 -68.6542 0
-1100.03 -70.9133 0
-1099.35 -72.8791 0
-1098.66 -74.561 0
-1097.95 -75.975 0
-1097.22 -77.1303 0
-1096.46 -78.0398 0
-1095.68 -78.7177 0
-1094.88 -79.1742 0
-1094.05 -79.4227 0
-1093.19 -79.472 0
-1092.31 -79.3346 0
-1091.39 -79.021 0
-1090.46 -78.5417 0
-1089.49 -77.9067 0
-1088.49 -77.1277 0
-1087.46 -76.2115 0
-1086.41 -75.1677 0
-1085.32 -74.0065 0
-1084.21 -72.7356 0
-1083.07 -71.3643 0
-1081.9 -69.8993 0
-1080.7 -68.3488 0
-1079.48 -66.72 0
-1078.23 -65.0206 0
-1076.95 -63.2558 0
-1075.64 -61.4334 0
-1074.32 -59.5585 0
-1072.96 -57.6378 0
-1071.58 -55.6778 0
-1070.18 -53.6825 0
-1068.75 -51.6567 0
-1067.31 -49.6076 0
-1065.83 -47.5375 0
-1064.34 -45.4524 0
-1062.83 -43.3553 0
-1061.29 -41.2506 0
-1059.74 -39.1427 0
-1058.17 -37.0352 0
-1056.58 -34.934 0
-1054.97 -32.8386 0
-1053.35 -30.751 0
-1051.71 -28.6769 0
-1050.05 -26.6194 0
-1048.38 -24.5796 0
-1046.69 -22.5612 0
-1044.99 -20.5644 0
-1043.27 -18.5946 0
-1041.55 -16.652 0
-1039.81 -14.7376 0
-1038.06 -12.8552 0
-1036.3 -11.0062 0
-1034.53 -9.18941 0
-1032.74 -7.40857 0
-1030.95 -5.66515 0
-1029.15 -3.95895 0
-1027.35 -2.293 0
-1025.53 -0.667237 0
-1023.71 0.919339 0
-1021.88 2.4624 0
-1020.04 3.96148 0
-1018.2 5.41878 0
-1016.35 6.83217 0
-1014.5 8.20097 0
-1012.64 9.52528 0
-1010.78 10.8053 0
-1008.92 12.0382 0
-1007.05 13.2255 0
-1005.18 14.3669 0
-1003.3 15.4622 0
-1001.43 16.513 0
-999.552 17.5148 0
-997.671 18.472 0
-995.792 19.3827 0
-993.91 20.2478 0
-992.028 21.0668 0