<?xml version="1.0"?>
<VTKFile type="StructuredGrid"  version="0.1" byte_order="LittleEndian" compressor="vtkZLibDataCompressor">
  <StructuredGrid WholeExtent="0 700 0 30 0 0">
    <Piece Extent="0 700 0 30 0 0">
      <PointData Vectors="Velocity">
        <DataArray type="Float32" Name="Velocity" NumberOfComponents="3" format="ascii">
-1081.86 119.275 0
-1082.21 108.32 0
-1082.62 97.4882 0
-1083.04 86.8673 0
-1083.49 76.5018 0
-1083.97 66.4356 0
-1084.51 56.7633 0
-1085.08 47.5447 0
-1085.68 38.8156 0
-1086.27 30.6064 0
-1086.85 22.9282 0
-1087.41 15.8145 0
-1087.94 9.27251 0
-1088.4 3.32483 0
-1088.73 -2.1062 0
-1088.94 -7.1829 0
-1089.18 -11.9512 0
-1089.39 -16.3976 0
-1089.64 -20.4699 0
-1089.88 -24.154 0
-1090.1 -27.4349 0
-1090.29 -30.3319 0
-1090.45 -32.851 0
-1090.57 -35.0073 0
-1090.63 -36.8184 0
-1090.65 -38.3046 0
-1090.6 -39.4938 0
-1090.49 -40.408 0
-1090.32 -41.0686 0
-1090.07 -41.492 0
-1089.75 -41.7055 0
-1089.37 -41.7229 0
-1088.91 -41.5606 0
-1088.39 -41.2311 0
-1087.8 -40.752 0
-1087.14 -40.1403 0
-1086.42 -39.4027 0
-1085.64 -38.5603 0
-1084.8 -37.6105 0
-1083.89 -36.5803 0
-1082.93 -35.4714 0
-1081.91 -34.3004 0
-1080.83 -33.0662 0
-1079.71 -31.7904 0
-1078.53 -30.4675 0
-1077.31 -29.1194 0
-1076.04 -27.7403 0
-1074.72 -26.3449 0
-1073.37 -24.9356 0
-1071.97 -23.5228 0
-1070.54 -22.1066 0
-1069.07 -20.694 0
-1067.56 -19.2875 0
-1066.03 -17.8958 0
-1064.46 -16.5189 0
-1062.86 -15.1626 0
-1061.24 -13.8338 0
-1059.59 -12.528 0
-1057.92 -11.25 0
-1056.23 -10.0015 0
-1054.51 -8.78824 0
-1052.78 -7.60953 0
-1051.03 -6.47306 0
-1049.26 -5.36416 0
-1047.49 -4.30248 0
-1045.69 -3.2806 0
-1043.88 -2.2977 0
-1042.06 -1.35826 0
-1040.23 -0.462142 0
-1038.39 0.387505 0
-1036.55 1.19867 0
-1034.69 1.96222 0
-1032.83 2.68373 0
-1030.96 3.3562 0
-1029.1 3.98955 0
-1027.22 4.57828 0
-1025.35 5.12491 0
-1023.47 5.62713 0
-1021.59 6.08599 0
-1019.71 6.50396 0
-1017.82 6.88095 0
-1015.95 7.21399 0
-1014.07 7.50879 0
-1012.19 7.76791 0
-1010.32 7.98571 0
-1008.45 8.16402 0
-1006.58 8.30739 0
-1004.71 8.41488 0
-1002.85 8.48936 0
-1001 8.53092 0
-999.148 8.53777 0
-997.304 8.51238 0
-995.467 8.46107 0
-993.632 8.37952 0
-991.808 8.27153 0
-989.986 8.13533 0
-988.174 7.97663 0
-986.367 7.79349 0
-984.567 7.58345 0
-982.775 7.35434 0
-980.989 7.10758 0
-979.212 6.83864 0
-977.443 6.55417 0
-975.681 6.25035 0
-973.926 5.93061 0
-972.177 5.60093 0
-970.436 5.2546 0
-968.704 4.89934 0
-966.98 4.53048 0
-965.261 4.15834 0
-963.553 3.77299 0
-961.85 3.3826 0
-960.152 2.98389 0
-958.463 2.58608 0
-956.779 2.18056 0
-955.103 1.76791 0
-953.434 1.35947 0
-951.773 0.947526 0
-950.118 0.536738 0
-948.467 0.12571 0
-946.822 -0.283964 0
-945.183 -0.686989 0
-943.549 -1.08988 0
-941.921 -1.48553 0
-940.296 -1.88009 0
-938.678 -2.26417 0
-937.063 -2.64534 0
-935.451 -3.01995 0
-933.847 -3.38617 0
-932.247 -3.74496 0
-930.65 -4.09791 0
-929.055 -4.43714 0
-927.464 -4.77041 0
-925.875 -5.09152 0
-924.292 -5.40491 0
-922.707 -5.70476 0
-921.126 -5.99653 0
-919.548 -6.27661 0
-917.974 -6.54728 0
-916.397 -6.80289 0
-914.824 -7.04885 0
-913.252 -7.28313 0
-911.683 -7.50554 0
-910.111 -7.71731 0
-908.542 -7.9155 0
-906.972 -8.10108 0
-905.406 -8.27642 0
-903.838 -8.43987 0
-902.271 -8.59084 0
-900.703 -8.73059 0
-899.135 -8.85615 0
-897.568 -8.97258 0
-895.999 -9.07894 0
-894.433 -9.1728 0
-892.863 -9.25542 0
-891.293 -9.3273 0
-889.72 -9.386 0
-888.149 -9.43893 0
-886.572 -9.47979 0
-884.998 -9.51133 0
-883.422 -9.52861 0
-881.844 -9.54172 0
-880.266 -9.54709 0
-878.686 -9.53765 0
-877.102 -9.52034 0
-875.52 -9.49653 0
-873.933 -9.4669 0
-872.346 -9.42811 0
-870.758 -9.38101 0
-869.168 -9.32713 0
-867.579 -9.26673 0
-865.984 -9.2001 0
-864.387 -9.12677 0
-862.789 -9.04586 0
-861.19 -8.95958 0
-859.59 -8.87039 0
-857.987 -8.77928 0
-856.379 -8.67591 0
-854.773 -8.57722 0
-853.166 -8.46936 0
-851.556 -8.3583 0
-849.942 -8.24474 0
-848.325 -8.13137 0
-846.709 -8.01052 0
-845.092 -7.88874 0
-843.474 -7.76379 0
-841.85 -7.63765 0
-840.224 -7.51406 0
-838.6 -7.38413 0
-836.972 -7.25467 0
-835.343 -7.12749 0
-833.713 -6.99728 0
-832.083 -6.86888 0
-830.447 -6.73701 0
-828.812 -6.60634 0
-827.173 -6.47495 0
-825.534 -6.34776 0
-823.895 -6.21684 0
-822.254 -6.09285 0
-820.611 -5.9677 0
-818.969 -5.84222 0
-817.326 -5.719 0
-815.68 -5.59953 0
-814.03 -5.48012 0
-812.383 -5.36285 0
-810.735 -5.24831 0
-809.084 -5.1339 0
-807.435 -5.02533 0
-805.782 -4.91886 0
-804.131 -4.8144 0
-802.479 -4.71401 0
-800.824 -4.61551 0
-799.169 -4.52173 0
-797.515 -4.42689 0
-795.859 -4.33806 0
-794.204 -4.25155 0
-792.549 -4.1689 0
-790.891 -4.09114 0
-789.232 -4.01337 0
-787.577 -3.93916 0
-785.922 -3.87349 0
-784.263 -3.80777 0
-782.604 -3.74399 0
-780.946 -3.68091 0
-779.285 -3.62438 0
-777.627 -3.57184 0
-775.969 -3.52444 0
-774.31 -3.48189 0
-772.652 -3.43725 0
-770.994 -3.39407 0
-769.337 -3.35985 0
-767.677 -3.3249 0
-766.021 -3.29426 0
-764.364 -3.26879 0
-762.708 -3.24534 0
-761.05 -3.22535 0
-759.392 -3.20518 0
-757.735 -3.19244 0
-756.077 -3.181 0
-754.42 -3.17418 0
-752.766 -3.16904 0
-751.11 -3.16875 0
-749.455 -3.17108 0
-747.805 -3.17066 0
-746.151 -3.17361 0
-744.5 -3.1811 0
-742.85 -3.19029 0
-741.193 -3.20257 0
-739.538 -3.21647 0
-737.887 -3.23277 0
-736.235 -3.25308 0
-734.588 -3.27102 0
-732.936 -3.29357 0
-731.285 -3.31339 0
-729.637 -3.33711 0
-727.99 -3.36743 0
-726.341 -3.39355 0
-724.695 -3.42554 0
-723.049 -3.45521 0
-721.404 -3.48964 0
-719.758 -3.52205 0
-718.112 -3.55894 0
-716.467 -3.59591 0
-714.822 -3.63199 0
-713.179 -3.67446 0
-711.536 -3.70837 0
-709.892 -3.75011 0
-708.252 -3.78624 0
-706.609 -3.82858 0
-704.967 -3.86865 0
-703.327 -3.90886 0
-701.689 -3.95007 0
-700.05 -3.99231 0
-698.41 -4.03516 0
-696.768 -4.07633 0
-695.128 -4.11762 0
-693.491 -4.16181 0
-691.855 -4.20457 0
-690.215 -4.24343 0
-688.58 -4.28569 0
-686.944 -4.33082 0
-685.306 -4.37083 0
-683.671 -4.41191 0
-682.034 -4.45139 0
-680.4 -4.49432 0
-678.768 -4.5315 0
-677.133 -4.57101 0
-675.499 -4.60977 0
-673.867 -4.64692 0
-672.234 -4.68689 0
-670.603 -4.72186 0
-668.968 -4.75573 0
-667.335 -4.79001 0
-665.704 -4.82854 0
-664.071 -4.8583 0
-662.441 -4.89149 0
-660.812 -4.92507 0
-659.184 -4.95463 0
-657.55 -4.98498 0
-655.917 -5.01337 0
-654.286 -5.04144 0
-652.654 -5.06906 0
-651.022 -5.09316 0
-649.391 -5.1172 0
-647.759 -5.13669 0
-646.129 -5.16281 0
-644.496 -5.17935 0
-642.868 -5.19822 0
-641.236 -5.22327 0
-639.604 -5.24329 0
-637.977 -5.26071 0
-636.348 -5.2742 0
-634.717 -5.29344 0
-633.083 -5.30684 0
-631.453 -5.3195 0
-629.824 -5.33466 0
-628.195 -5.34334 0
-626.564 -5.35294 0
-624.934 -5.36331 0
-623.3 -5.37258 0
-621.671 -5.38034 0
-620.043 -5.387 0
-618.411 -5.39029 0
-616.779 -5.39694 0
-615.15 -5.39935 0
-613.52 -5.40162 0
-611.888 -5.40318 0
-610.254 -5.40654 0
-608.625 -5.40935 0
-606.994 -5.40788 0
-605.364 -5.40824 0
-603.728 -5.40529 0
-602.097 -5.40614 0
-600.462 -5.39901 0
-598.832 -5.39519 0
-597.199 -5.38969 0
-595.565 -5.38268 0
-593.931 -5.37411 0
-592.297 -5.36945 0
-590.667 -5.36125 0
-589.033 -5.35459 0
-587.398 -5.34849 0
-585.764 -5.33847 0
-584.133 -5.32748 0
-582.494 -5.31725 0
-580.862 -5.30806 0
-579.23 -5.29597 0
-577.597 -5.28642 0
-575.958 -5.2767 0
-574.324 -5.2689 0
-572.692 -5.2566 0
-571.053 -5.24858 0
-569.422 -5.23318 0
-567.79 -5.22221 0
-566.154 -5.20679 0
-564.52 -5.19248 0
-562.882 -5.17686 0
-561.242 -5.16793 0
-559.605 -5.15542 0
-557.972 -5.14281 0
-556.336 -5.12604 0
-554.697 -5.1135 0
-553.059 -5.10109 0
-551.422 -5.0876 0
-549.788 -5.07659 0
-548.144 -5.06064 0
-546.513 -5.05041 0
-544.88 -5.03708 0
-543.239 -5.02202 0
-541.6 -5.00819 0
-539.965 -4.99635 0
-538.328 -4.98441 0
-536.687 -4.96936 0
-535.05 -4.96076 0
-533.414 -4.95184 0
-531.779 -4.93313 0
-530.144 -4.92044 0
-528.504 -4.90988 0
-526.867 -4.90003 0
-525.227 -4.88607 0
-523.587 -4.87187 0
-521.952 -4.86703 0
-520.315 -4.85707 0
-518.679 -4.84065 0
-517.042 -4.83112 0
-515.405 -4.8277 0
-513.766 -4.81125 0
-512.127 -4.80531 0
-510.49 -4.79395 0
-508.846 -4.78194 0
-507.207 -4.78169 0
-505.571 -4.77575 0
-503.931 -4.76891 0
-502.291 -4.75953 0
-500.655 -4.75026 0
-499.018 -4.74376 0
-497.378 -4.7341 0
-495.739 -4.72576 0
-494.096 -4.72502 0
-492.462 -4.71635 0
-490.822 -4.71541 0
-489.187 -4.7112 0
-487.548 -4.70386 0
-485.91 -4.702 0
-484.273 -4.70098 0
-482.631 -4.69494 0
-480.99 -4.6906 0
-479.354 -4.68804 0
-477.714 -4.68233 0
-476.071 -4.68054 0
-474.437 -4.67191 0
-472.797 -4.67901 0
-471.16 -4.67912 0
-469.522 -4.6733 0
-467.887 -4.67604 0
-466.246 -4.6774 0
-464.611 -4.67358 0
-462.973 -4.67804 0
-461.33 -4.67573 0
-459.688 -4.67643 0
-458.056 -4.67578 0
-456.419 -4.67867 0
-454.784 -4.6752 0
-453.145 -4.67668 0
-451.507 -4.67692 0
-449.867 -4.68307 0
-448.231 -4.68386 0
-446.593 -4.6839 0
-444.951 -4.68602 0
-443.316 -4.68844 0
-441.678 -4.68728 0
-440.035 -4.69364 0
-438.396 -4.70057 0
-436.761 -4.70024 0
-435.123 -4.70673 0
-433.483 -4.70854 0
-431.845 -4.71374 0
-430.21 -4.71502 0
-428.577 -4.72277 0
-426.943 -4.71996 0
-425.299 -4.72156 0
-423.663 -4.73165 0
-422.024 -4.73383 0
-420.385 -4.73335 0
-418.748 -4.74085 0
-417.111 -4.74683 0
-415.478 -4.7512 0
-413.84 -4.75496 0
-412.204 -4.75889 0
-410.566 -4.76394 0
-408.93 -4.76815 0
-407.29 -4.77442 0
-405.656 -4.77979 0
-404.019 -4.78592 0
-402.386 -4.79372 0
-400.751 -4.79493 0
-399.11 -4.79862 0
-397.474 -4.80401 0
-395.836 -4.80942 0
-394.202 -4.81201 0
-392.569 -4.81286 0
-390.93 -4.81941 0
-389.291 -4.82064 0
-387.656 -4.82033 0
-386.022 -4.82476 0
-384.389 -4.82852 0
-382.749 -4.83097 0
-381.113 -4.83534 0
-379.476 -4.84334 0
-377.839 -4.84852 0
-376.202 -4.85344 0
-374.569 -4.85302 0
-372.935 -4.8636 0
-371.307 -4.86664 0
-369.669 -4.86404 0
-368.03 -4.86616 0
-366.392 -4.87164 0
-364.755 -4.87687 0
-363.116 -4.87732 0
-361.481 -4.88299 0
-359.843 -4.88629 0
-358.21 -4.88517 0
-356.575 -4.89291 0
-354.948 -4.89364 0
-353.309 -4.89734 0
-351.667 -4.90196 0
-350.035 -4.90433 0
-348.396 -4.91423 0
-346.762 -4.91153 0
-345.13 -4.91413 0
-343.492 -4.92107 0
-341.856 -4.91758 0
-340.221 -4.91824 0
-338.585 -4.91749 0
-336.95 -4.92055 0
-335.312 -4.92385 0
-333.676 -4.92871 0
-332.04 -4.92848 0
-330.405 -4.92361 0
-328.767 -4.92813 0
-327.132 -4.92614 0
-325.493 -4.9272 0
-323.856 -4.93147 0
-322.222 -4.92919 0
-320.586 -4.93205 0
-318.952 -4.93817 0
-317.314 -4.93719 0
-315.674 -4.93295 0
-314.04 -4.94026 0
-312.406 -4.93303 0
-310.775 -4.93866 0
-309.141 -4.93499 0
-307.499 -4.94042 0
-305.864 -4.93987 0
-304.23 -4.94212 0
-302.597 -4.94197 0
-300.963 -4.94028 0
-299.328 -4.94187 0
-297.692 -4.94177 0
-296.058 -4.94522 0
-294.428 -4.9481 0
-292.789 -4.94017 0
-291.152 -4.93986 0
-289.51 -4.93613 0
-287.876 -4.93661 0
-286.24 -4.93824 0
-284.607 -4.94492 0
-282.972 -4.9447 0
-281.338 -4.93813 0
-279.699 -4.94268 0
-278.066 -4.94302 0
-276.428 -4.945 0
-274.794 -4.94473 0
-273.154 -4.93596 0
-271.522 -4.93654 0
-269.886 -4.93749 0
-268.246 -4.93311 0
-266.613 -4.93344 0
-264.975 -4.92872 0
-263.338 -4.92722 0
-261.706 -4.92932 0
-260.067 -4.92998 0
-258.432 -4.92464 0
-256.796 -4.92931 0
-255.162 -4.92107 0
-253.529 -4.92037 0
-251.891 -4.92405 0
-250.259 -4.9174 0
-248.62 -4.91817 0
-246.986 -4.91918 0
-245.349 -4.91883 0
-243.712 -4.91081 0
-242.078 -4.9136 0
-240.448 -4.9064 0
-238.807 -4.90588 0
-237.17 -4.90175 0
-235.534 -4.90659 0
-233.896 -4.90414 0
-232.26 -4.90156 0
-230.619 -4.89751 0
-228.991 -4.90134 0
-227.352 -4.89815 0
-225.718 -4.89991 0
-224.079 -4.90014 0
-222.445 -4.8963 0
-220.809 -4.89101 0
-219.171 -4.88673 0
-217.538 -4.88742 0
-215.904 -4.89441 0
-214.268 -4.8855 0
-212.628 -4.88608 0
-210.988 -4.8861 0
-209.354 -4.88992 0
-207.715 -4.88396 0
-206.082 -4.88057 0
-204.446 -4.87857 0
-202.811 -4.87746 0
-201.168 -4.87415 0
-199.533 -4.87207 0
-197.901 -4.86821 0
-196.267 -4.8726 0
-194.63 -4.86925 0
-192.996 -4.87411 0
-191.36 -4.86884 0
-189.724 -4.87316 0
-188.09 -4.86728 0
-186.454 -4.87158 0
-184.822 -4.87019 0
-183.183 -4.86705 0
-181.546 -4.86876 0
-179.914 -4.86274 0
-178.277 -4.86315 0
-176.642 -4.86548 0
-175.009 -4.85734 0
-173.37 -4.85805 0
-171.733 -4.86169 0
-170.103 -4.8551 0
-168.464 -4.85686 0
-166.832 -4.85956 0
-165.199 -4.85786 0
-163.566 -4.86122 0
-161.926 -4.8566 0
-160.288 -4.85031 0
-158.653 -4.85588 0
-157.016 -4.85748 0
-155.376 -4.85406 0
-153.739 -4.85431 0
-152.11 -4.85514 0
-150.472 -4.85483 0
-148.832 -4.84846 0
-147.191 -4.84679 0
-145.559 -4.85211 0
-143.921 -4.85158 0
-142.279 -4.85145 0
-140.648 -4.85164 0
-139.016 -4.85424 0
-137.376 -4.85178 0
-135.742 -4.85329 0
-134.108 -4.85558 0
-132.477 -4.85524 0
-130.837 -4.8526 0
-129.2 -4.85428 0
-127.567 -4.85802 0
-125.933 -4.85435 0
-124.294 -4.84913 0
-122.663 -4.8586 0
-121.025 -4.85268 0
-119.392 -4.84677 0
-117.751 -4.84306 0
-116.116 -4.8478 0
-114.481 -4.85077 0
-112.842 -4.85819 0
-111.21 -4.85044 0
-109.576 -4.8523 0
-107.942 -4.85419 0
-106.309 -4.85787 0
-104.671 -4.85196 0
-103.04 -4.85676 0
-101.403 -4.85171 0
-99.7645 -4.85691 0
-98.1276 -4.85799 0
-96.4908 -4.86057 0
-94.854 -4.86416 0
-93.2177 -4.85604 0
-91.5803 -4.85615 0
-89.9404 -4.85414 0
-88.3072 -4.86024 0
-86.6718 -4.85982 0
-85.0372 -4.86251 0
-83.3967 -4.85257 0
-81.7639 -4.86211 0
-80.1263 -4.86399 0
-78.4921 -4.85652 0
-76.8529 -4.86147 0
-75.2206 -4.85452 0
-73.5921 -4.86054 0
-71.9539 -4.85962 0
-70.3168 -4.86017 0
-68.6842 -4.86314 0
-67.0499 -4.86291 0
-65.4099 -4.85866 0
-63.7724 -4.85787 0
-62.1395 -4.85617 0
-60.5088 -4.86315 0
-58.8731 -4.8641 0
-57.2355 -4.86177 0
-55.5962 -4.86384 0
-53.9599 -4.8703 0
-52.325 -4.87515 0
-50.6905 -4.87435 0
-49.0603 -4.86987 0
-47.4207 -4.87105 0
-45.7894 -4.87171 0
-44.1497 -4.87035 0
-42.5176 -4.86986 0
-40.8834 -4.86908 0
-39.2485 -4.86373 0
-37.6052 -4.86636 0
-35.9709 -4.87194 0
-34.3384 -4.86803 0
-32.7005 -4.86837 0
-31.0647 -4.8677 0
-29.4297 -4.8672 0
-27.7962 -4.86939 0
-26.1606 -4.87008 0
-24.5275 -4.86863 0
-22.8959 -4.86687 0
-21.2569 -4.86316 0
-19.6214 -4.86611 0
-17.9847 -4.86318 0
-16.3516 -4.86762 0
-14.7122 -4.8691 0
-13.0786 -4.86946 0
-11.4434 -4.86662 0
-9.80854 -4.86769 0
-8.17089 -4.86515 0
-6.53807 -4.86426 0
-4.90324 -4.86293 0
-3.26898 -4.86353 0
-1.63422 -4.86348 0
0 -4.86228 0
-1092.82 119.657 0
-1093.07 108.648 0
-1093.3 97.7893 0
-1093.52 87.1529 0
-1093.72 76.7595 0
-1093.88 66.6609 0
-1094 56.9401 0
-1094.1 47.6727 0
-1094.17 38.9076 0
-1094.22 30.6729 0
-1094.24 22.9819 0
-1094.22 15.8624 0
-1094.13 9.33274 0
-1094.01 3.40233 0
-1093.92 -2.01911 0
-1093.89 -7.09586 0
-1093.81 -11.8768 0
-1093.72 -16.3261 0
-1093.59 -20.4049 0
-1093.42 -24.0859 0
-1093.25 -27.3632 0
-1093.05 -30.2546 0
-1092.84 -32.7547 0
-1092.6 -34.8893 0
-1092.33 -36.6676 0
-1092.03 -38.1182 0
-1091.69 -39.2592 0
-1091.31 -40.1238 0
-1090.89 -40.7334 0
-1090.41 -41.1028 0
-1089.89 -41.2553 0
-1089.31 -41.2156 0
-1088.68 -40.9905 0
-1088 -40.6047 0
-1087.27 -40.0671 0
-1086.49 -39.3955 0
-1085.65 -38.6046 0
-1084.76 -37.7013 0
-1083.82 -36.7001 0
-1082.84 -35.615 0
-1081.8 -34.454 0
-1080.72 -33.2297 0
-1079.59 -31.9485 0
-1078.42 -30.6232 0
-1077.21 -29.256 0
-1075.96 -27.8623 0
-1074.66 -26.4434 0
-1073.34 -25.0058 0
-1071.97 -23.5587 0
-1070.57 -22.1105 0
-1069.14 -20.6602 0
-1067.67 -19.2159 0
-1066.18 -17.777 0
-1064.66 -16.3562 0
-1063.11 -14.9516 0
-1061.54 -13.5695 0
-1059.94 -12.2149 0
-1058.32 -10.8841 0
-1056.67 -9.58702 0
-1055.01 -8.32049 0
-1053.33 -7.08881 0
-1051.64 -5.89119 0
-1049.92 -4.7355 0
-1048.2 -3.6172 0
-1046.46 -2.53798 0
-1044.7 -1.50379 0
-1042.93 -0.511055 0
-1041.16 0.437677 0
-1039.37 1.34245 0
-1037.58 2.20276 0
-1035.77 3.01806 0
-1033.96 3.78913 0
-1032.15 4.51611 0
-1030.32 5.19554 0
-1028.5 5.83114 0
-1026.66 6.42366 0
-1024.83 6.97138 0
-1022.99 7.4746 0
-1021.16 7.93496 0
-1019.32 8.352 0
-1017.48 8.72747 0
-1015.64 9.06159 0
-1013.8 9.35595 0
-1011.96 9.61173 0
-1010.13 9.82823 0
-1008.29 10.0038 0
-1006.46 10.1439 0
-1004.63 10.2482 0
-1002.8 10.318 0
-1000.98 10.3554 0
-999.161 10.3555 0
-997.346 10.3264 0
-995.536 10.2691 0
-993.733 10.1831 0
-991.932 10.0689 0
-990.136 9.92795 0
-988.347 9.76171 0
-986.565 9.57086 0
-984.787 9.35601 0
-983.014 9.12055 0
-981.248 8.86412 0
-979.489 8.59146 0
-977.736 8.29815 0
-975.989 7.9894 0
-974.249 7.66395 0
-972.514 7.32524 0
-970.786 6.97416 0
-969.064 6.60883 0
-967.347 6.23664 0
-965.639 5.85339 0
-963.937 5.46308 0
-962.241 5.0668 0
-960.55 4.6636 0
-958.864 4.25723 0
-957.184 3.84514 0
-955.511 3.42796 0
-953.842 3.0136 0
-952.179 2.59594 0
-950.523 2.17849 0
-948.873 1.76259 0
-947.225 1.34837 0
-945.582 0.939916 0
-943.944 0.531143 0
-942.312 0.131457 0
-940.683 -0.265773 0
-939.058 -0.655314 0
-937.437 -1.04061 0
-935.821 -1.4195 0
-934.209 -1.79102 0
-932.599 -2.15275 0
-930.992 -2.5072 0
-929.387 -2.8512 0
-927.786 -3.18717 0
-926.189 -3.5113 0
-924.593 -3.82564 0
-923 -4.12802 0
-921.409 -4.42308 0
-919.82 -4.70527 0
-918.232 -4.9752 0
-916.646 -5.23433 0
-915.061 -5.48188 0
-913.477 -5.71749 0
-911.895 -5.9399 0
-910.314 -6.15145 0
-908.733 -6.35115 0
-907.152 -6.53809 0
-905.572 -6.71367 0
-903.993 -6.87596 0
-902.413 -7.02747 0
-900.834 -7.16847 0
-899.257 -7.29516 0
-897.679 -7.41103 0
-896.099 -7.51543 0
-894.519 -7.60891 0
-892.938 -7.69112 0
-891.356 -7.7614 0
-889.775 -7.82042 0
-888.192 -7.87144 0
-886.608 -7.91049 0
-885.024 -7.94015 0
-883.438 -7.95752 0
-881.851 -7.96906 0
-880.263 -7.97214 0
-878.673 -7.96292 0
-877.083 -7.94581 0
-875.492 -7.92 0
-873.898 -7.88694 0
-872.302 -7.84775 0
-870.707 -7.80011 0
-869.111 -7.7428 0
-867.511 -7.67973 0
-865.911 -7.61214 0
-864.311 -7.53776 0
-862.709 -7.45501 0
-861.104 -7.36785 0
-859.498 -7.27675 0
-857.889 -7.18039 0
-856.282 -7.08056 0
-854.671 -6.97843 0
-853.058 -6.86865 0
-851.444 -6.75553 0
-849.828 -6.63967 0
-848.21 -6.52287 0
-846.59 -6.40267 0
-844.969 -6.28001 0
-843.348 -6.15153 0
-841.726 -6.02506 0
-840.1 -5.89898 0
-838.473 -5.76915 0
-836.845 -5.63804 0
-835.215 -5.50837 0
-833.584 -5.37724 0
-831.951 -5.24399 0
-830.316 -5.11228 0
-828.681 -4.97926 0
-827.045 -4.8486 0
-825.407 -4.71858 0
-823.769 -4.5888 0
-822.129 -4.46183 0
-820.487 -4.33651 0
-818.846 -4.21195 0
-817.204 -4.08644 0
-815.56 -3.96498 0
-813.917 -3.84403 0
-812.268 -3.72513 0
-810.62 -3.61074 0
-808.974 -3.49643 0
-807.326 -3.38917 0
-805.679 -3.27946 0
-804.029 -3.17445 0
-802.377 -3.07247 0
-800.727 -2.97325 0
-799.076 -2.87761 0
-797.425 -2.78439 0
-795.773 -2.69378 0
-794.12 -2.60847 0
-792.465 -2.52557 0
-790.812 -2.44613 0
-789.158 -2.36996 0
-787.507 -2.29497 0
-785.852 -2.22843 0
-784.198 -2.16121 0
-782.542 -2.09636 0
-780.887 -2.035 0
-779.234 -1.97795 0
-777.577 -1.92572 0
-775.923 -1.87996 0
-774.266 -1.83318 0
-772.611 -1.79159 0
-770.958 -1.75062 0
-769.303 -1.7129 0
-767.648 -1.6822 0
-765.994 -1.65078 0
-764.338 -1.62412 0
-762.686 -1.60157 0
-761.031 -1.57937 0
-759.378 -1.56091 0
-757.723 -1.54809 0
-756.069 -1.53561 0
-754.415 -1.53141 0
-752.763 -1.52731 0
-751.11 -1.52606 0
-749.46 -1.52694 0
-747.806 -1.5281 0
-746.157 -1.53328 0
-744.507 -1.54092 0
-742.856 -1.55033 0
-741.205 -1.55978 0
-739.555 -1.57541 0
-737.904 -1.59245 0
-736.255 -1.6125 0
-734.605 -1.63368 0
-732.957 -1.65291 0
-731.31 -1.67631 0
-729.663 -1.70293 0
-728.018 -1.73009 0
-726.371 -1.75668 0
-724.724 -1.78907 0
-723.078 -1.82102 0
-721.433 -1.8549 0
-719.789 -1.88833 0
-718.147 -1.92458 0
-716.503 -1.96383 0
-714.861 -2.00023 0
-713.218 -2.04081 0
-711.575 -2.07773 0
-709.934 -2.11743 0
-708.294 -2.15635 0
-706.651 -2.19812 0
-705.009 -2.23825 0
-703.367 -2.27973 0
-701.729 -2.31995 0
-700.09 -2.3648 0
-698.452 -2.40471 0
-696.814 -2.447 0
-695.172 -2.49075 0
-693.534 -2.53505 0
-691.897 -2.57672 0
-690.261 -2.61724 0
-688.625 -2.66189 0
-686.986 -2.70263 0
-685.348 -2.74559 0
-683.711 -2.7873 0
-682.076 -2.82765 0
-680.441 -2.87016 0
-678.807 -2.90924 0
-677.171 -2.94576 0
-675.537 -2.98627 0
-673.903 -3.02586 0
-672.271 -3.06271 0
-670.637 -3.09864 0
-669.003 -3.13407 0
-667.371 -3.1696 0
-665.738 -3.2061 0
-664.107 -3.23979 0
-662.474 -3.27034 0
-660.844 -3.30329 0
-659.209 -3.33182 0
-657.576 -3.36142 0
-655.945 -3.39219 0
-654.31 -3.42009 0
-652.679 -3.44668 0
-651.046 -3.4736 0
-649.414 -3.49491 0
-647.783 -3.51859 0
-646.15 -3.54173 0
-644.52 -3.55984 0
-642.888 -3.57977 0
-641.255 -3.60177 0
-639.622 -3.61958 0
-637.991 -3.64037 0
-636.36 -3.65568 0
-634.729 -3.6705 0
-633.098 -3.68493 0
-631.465 -3.699 0
-629.834 -3.71422 0
-628.204 -3.72351 0
-626.571 -3.73506 0
-624.941 -3.74075 0
-623.311 -3.75096 0
-621.678 -3.75728 0
-620.048 -3.76328 0
-618.414 -3.772 0
-616.783 -3.77617 0
-615.151 -3.7802 0
-613.52 -3.78146 0
-611.889 -3.78415 0
-610.257 -3.78343 0
-608.624 -3.78711 0
-606.991 -3.78624 0
-605.357 -3.78352 0
-603.725 -3.78526 0
-602.091 -3.78093 0
-600.458 -3.77542 0
-598.826 -3.7711 0
-597.194 -3.76591 0
-595.559 -3.76068 0
-593.926 -3.75105 0
-592.291 -3.74605 0
-590.656 -3.73947 0
-589.023 -3.73295 0
-587.389 -3.72574 0
-585.755 -3.71528 0
-584.121 -3.70419 0
-582.487 -3.69371 0
-580.85 -3.68356 0
-579.215 -3.6737 0
-577.582 -3.66117 0
-575.949 -3.65464 0
-574.313 -3.64348 0
-572.679 -3.63255 0
-571.042 -3.62076 0
-569.41 -3.60957 0
-567.774 -3.59577 0
-566.139 -3.58418 0
-564.504 -3.56749 0
-562.869 -3.5524 0
-561.231 -3.5428 0
-559.596 -3.53125 0
-557.958 -3.51697 0
-556.319 -3.50092 0
-554.683 -3.48769 0
-553.047 -3.4764 0
-551.408 -3.46102 0
-549.774 -3.45093 0
-548.137 -3.43656 0
-546.499 -3.42299 0
-544.863 -3.41003 0
-543.224 -3.39756 0
-541.589 -3.38144 0
-539.953 -3.37011 0
-538.315 -3.35678 0
-536.678 -3.3437 0
-535.041 -3.32999 0
-533.405 -3.32314 0
-531.767 -3.30864 0
-530.128 -3.29277 0
-528.491 -3.28423 0
-526.851 -3.2719 0
-525.215 -3.26306 0
-523.58 -3.24565 0
-521.942 -3.23617 0
-520.304 -3.22955 0
-518.666 -3.21532 0
-517.029 -3.20645 0
-515.395 -3.1958 0
-513.753 -3.18714 0
-512.116 -3.17772 0
-510.478 -3.16812 0
-508.841 -3.1574 0
-507.202 -3.15173 0
-505.563 -3.14756 0
-503.925 -3.14088 0
-502.285 -3.13073 0
-500.648 -3.12318 0
-499.009 -3.11672 0
-497.372 -3.10761 0
-495.734 -3.10069 0
-494.097 -3.09488 0
-492.456 -3.08972 0
-490.819 -3.08643 0
-489.182 -3.0799 0
-487.542 -3.07476 0
-485.906 -3.07566 0
-484.265 -3.07142 0
-482.623 -3.06752 0
-480.986 -3.06453 0
-479.35 -3.06241 0
-477.71 -3.05631 0
-476.072 -3.05078 0
-474.436 -3.04894 0
-472.798 -3.04952 0
-471.16 -3.05213 0
-469.523 -3.05016 0
-467.884 -3.04848 0
-466.248 -3.04906 0
-464.609 -3.04592 0
-462.968 -3.04807 0
-461.328 -3.04863 0
-459.691 -3.04987 0
-458.055 -3.04945 0
-456.417 -3.04992 0
-454.781 -3.05163 0
-453.142 -3.04756 0
-451.506 -3.04872 0
-449.869 -3.05344 0
-448.231 -3.05751 0
-446.593 -3.05641 0
-444.956 -3.05629 0
-443.318 -3.06174 0
-441.68 -3.06346 0
-440.041 -3.06602 0
-438.405 -3.072 0
-436.77 -3.07117 0
-435.13 -3.07963 0
-433.492 -3.08055 0
-431.852 -3.0837 0
-430.214 -3.09104 0
-428.578 -3.09307 0
-426.941 -3.09286 0
-425.305 -3.09889 0
-423.666 -3.10339 0
-422.031 -3.10431 0
-420.393 -3.10589 0
-418.756 -3.11551 0
-417.12 -3.12133 0
-415.482 -3.1237 0
-413.847 -3.13276 0
-412.211 -3.13295 0
-410.572 -3.13759 0
-408.934 -3.14126 0
-407.296 -3.14763 0
-405.659 -3.15547 0
-404.025 -3.15935 0
-402.388 -3.16526 0
-400.754 -3.16821 0
-399.116 -3.17182 0
-397.482 -3.18046 0
-395.843 -3.18166 0
-394.208 -3.18314 0
-392.571 -3.19058 0
-390.932 -3.18994 0
-389.298 -3.19394 0
-387.661 -3.19853 0
-386.027 -3.20139 0
-384.39 -3.202 0
-382.755 -3.20378 0
-381.118 -3.20996 0
-379.482 -3.21782 0
-377.845 -3.22145 0
-376.208 -3.22769 0
-374.575 -3.23211 0
-372.938 -3.24026 0
-371.303 -3.24023 0
-369.666 -3.23698 0
-368.032 -3.24056 0
-366.397 -3.24472 0
-364.761 -3.24979 0
-363.12 -3.24937 0
-361.486 -3.25706 0
-359.851 -3.25643 0
-358.214 -3.26341 0
-356.578 -3.26592 0
-354.942 -3.27023 0
-353.305 -3.27235 0
-351.675 -3.27713 0
-350.037 -3.28235 0
-348.401 -3.28391 0
-346.766 -3.28822 0
-345.129 -3.29216 0
-343.492 -3.28978 0
-341.853 -3.29409 0
-340.22 -3.29014 0
-338.588 -3.29343 0
-336.947 -3.2972 0
-335.313 -3.29849 0
-333.674 -3.30215 0
-332.038 -3.30199 0
-330.405 -3.30111 0
-328.77 -3.30206 0
-327.131 -3.30125 0
-325.5 -3.30096 0
-323.862 -3.30568 0
-322.224 -3.30704 0
-320.591 -3.30763 0
-318.954 -3.31249 0
-317.317 -3.31365 0
-315.682 -3.31075 0
-314.042 -3.31346 0
-312.405 -3.31236 0
-310.768 -3.31335 0
-309.135 -3.31353 0
-307.502 -3.31656 0
-305.866 -3.31539 0
-304.235 -3.3177 0
-302.599 -3.31504 0
-300.964 -3.3176 0
-299.328 -3.31697 0
-297.694 -3.32009 0
-296.062 -3.32066 0
-294.426 -3.31874 0
-292.788 -3.31506 0
-291.148 -3.31735 0
-289.514 -3.31473 0
-287.88 -3.31466 0
-286.246 -3.31289 0
-284.61 -3.32208 0
-282.973 -3.31769 0
-281.334 -3.31565 0
-279.701 -3.31393 0
-278.066 -3.31878 0
-276.43 -3.31891 0
-274.788 -3.32028 0
-273.159 -3.31406 0
-271.519 -3.31123 0
-269.884 -3.31127 0
-268.246 -3.30978 0
-266.608 -3.30842 0
-264.975 -3.30725 0
-263.34 -3.30155 0
-261.701 -3.30514 0
-260.065 -3.305 0
-258.429 -3.30094 0
-256.794 -3.30193 0
-255.161 -3.30004 0
-253.526 -3.29927 0
-251.891 -3.29632 0
-250.25 -3.29424 0
-248.617 -3.29397 0
-246.984 -3.29548 0
-245.348 -3.29215 0
-243.714 -3.28763 0
-242.078 -3.28522 0
-240.442 -3.28314 0
-238.807 -3.27927 0
-237.172 -3.27663 0
-235.532 -3.27799 0
-233.894 -3.27528 0
-232.256 -3.27572 0
-230.623 -3.27724 0
-228.985 -3.27402 0
-227.349 -3.27472 0
-225.712 -3.2721 0
-224.081 -3.27538 0
-222.444 -3.26956 0
-220.805 -3.26447 0
-219.171 -3.26235 0
-217.536 -3.26466 0
-215.902 -3.26529 0
-214.267 -3.26596 0
-212.63 -3.26052 0
-210.995 -3.26173 0
-209.357 -3.26173 0
-207.718 -3.26038 0
-206.082 -3.25455 0
-204.443 -3.25436 0
-202.806 -3.25156 0
-201.171 -3.25096 0
-199.535 -3.24921 0
-197.9 -3.24482 0
-196.266 -3.24716 0
-194.63 -3.24838 0
-192.996 -3.24899 0
-191.36 -3.24484 0
-189.719 -3.24519 0
-188.087 -3.24582 0
-186.455 -3.24693 0
-184.82 -3.24423 0
-183.182 -3.24134 0
-181.544 -3.24141 0
-179.914 -3.23966 0
-178.276 -3.24025 0
-176.639 -3.23876 0
-175.005 -3.23272 0
-173.369 -3.23234 0
-171.733 -3.23927 0
-170.098 -3.23337 0
-168.464 -3.235 0
-166.831 -3.23481 0
-165.199 -3.23868 0
-163.562 -3.23574 0
-161.927 -3.228 0
-160.289 -3.22913 0
-158.651 -3.2285 0
-157.014 -3.23255 0
-155.38 -3.22608 0
-153.744 -3.23002 0
-152.107 -3.23185 0
-150.468 -3.22659 0
-148.828 -3.22664 0
-147.193 -3.22263 0
-145.557 -3.22944 0
-143.919 -3.22414 0
-142.283 -3.22635 0
-140.645 -3.23077 0
-139.013 -3.22759 0
-137.377 -3.22838 0
-135.746 -3.23007 0
-134.112 -3.23003 0
-132.476 -3.22835 0
-130.838 -3.22931 0
-129.202 -3.22903 0
-127.566 -3.23534 0
-125.929 -3.22776 0
-124.298 -3.22708 0
-122.659 -3.22911 0
-121.023 -3.22321 0
-119.384 -3.22228 0
-117.75 -3.21728 0
-116.113 -3.22849 0
-114.481 -3.23155 0
-112.847 -3.22968 0
-111.21 -3.22768 0
-109.578 -3.22886 0
-107.945 -3.23135 0
-106.307 -3.2323 0
-104.672 -3.23063 0
-103.037 -3.23108 0
-101.398 -3.22734 0
-99.7654 -3.22669 0
-98.1281 -3.23288 0
-96.4936 -3.23595 0
-94.8555 -3.23445 0
-93.2196 -3.23655 0
-91.5846 -3.23143 0
-89.9461 -3.23078 0
-88.3093 -3.23053 0
-86.6736 -3.23487 0
-85.0359 -3.23238 0
-83.4003 -3.23672 0
-81.7665 -3.23496 0
-80.1252 -3.23547 0
-78.4932 -3.23453 0
-76.8581 -3.23684 0
-75.2255 -3.23516 0
-73.5907 -3.23565 0
-71.9561 -3.23144 0
-70.3193 -3.23412 0
-68.6834 -3.23786 0
-67.0485 -3.23827 0
-65.4098 -3.2339 0
-63.776 -3.23421 0
-62.1397 -3.23725 0
-60.5054 -3.23482 0
-58.87 -3.23821 0
-57.2344 -3.24007 0
-55.6013 -3.24094 0
-53.9627 -3.2464 0
-52.3276 -3.24686 0
-50.6904 -3.24831 0
-49.0584 -3.24743 0
-47.4218 -3.24513 0
-45.7883 -3.24592 0
-44.1543 -3.24539 0
-42.518 -3.24613 0
-40.8781 -3.2441 0
-39.2449 -3.23888 0
-37.6068 -3.24039 0
-35.9704 -3.2452 0
-34.3364 -3.24438 0
-32.7015 -3.24521 0
-31.0649 -3.24687 0
-29.4282 -3.24609 0
-27.797 -3.24569 0
-26.1598 -3.24673 0
-24.5285 -3.24498 0
-22.8938 -3.2404 0
-21.2584 -3.23809 0
-19.6233 -3.23873 0
-17.9884 -3.23928 0
-16.3529 -3.24039 0
-14.7156 -3.24043 0
-13.0789 -3.24133 0
-11.4398 -3.24235 0
-9.80711 -3.24616 0
-8.1733 -3.24034 0
-6.53853 -3.23773 0
-4.89993 -3.23944 0
-3.26858 -3.24109 0
-1.63753 -3.23955 0
0 -3.23988 0
-1104.05 120.38 0
-1103.9 109.159 0
-1103.9 98.3011 0
-1103.87 87.6736 0
-1103.78 77.3027 0
-1103.6 67.236 0
-1103.35 57.5362 0
-1103.02 48.2725 0
-1102.63 39.5016 0
-1102.19 31.2643 0
-1101.7 23.5815 0
-1101.15 16.4755 0
-1100.56 9.94973 0
-1099.99 3.96756 0
-1099.47 -1.55728 0
-1099.01 -6.68452 0
-1098.57 -11.4593 0
-1098.11 -15.8926 0
-1097.6 -19.9516 0
-1097.07 -23.625 0
-1096.51 -26.903 0
-1095.93 -29.7891 0
-1095.34 -32.2908 0
-1094.74 -34.4141 0
-1094.13 -36.1839 0
-1093.51 -37.6207 0
-1092.87 -38.7411 0
-1092.21 -39.5806 0
-1091.53 -40.1557 0
-1090.82 -40.4872 0
-1090.09 -40.6029 0
-1089.31 -40.5195 0
-1088.51 -40.2581 0
-1087.66 -39.8251 0
-1086.78 -39.2464 0
-1085.87 -38.5275 0
-1084.91 -37.6927 0
-1083.92 -36.7462 0
-1082.88 -35.7003 0
-1081.81 -34.5727 0
-1080.7 -33.3688 0
-1079.56 -32.1034 0
-1078.38 -30.7815 0
-1077.16 -29.4148 0
-1075.91 -28.0126 0
-1074.63 -26.5801 0
-1073.31 -25.1276 0
-1071.97 -23.6571 0
-1070.59 -22.1769 0
-1069.19 -20.6969 0
-1067.76 -19.2164 0
-1066.29 -17.7427 0
-1064.81 -16.2799 0
-1063.3 -14.8323 0
-1061.77 -13.4047 0
-1060.22 -12 0
-1058.65 -10.6199 0
-1057.05 -9.27035 0
-1055.44 -7.95325 0
-1053.81 -6.67074 0
-1052.16 -5.42089 0
-1050.5 -4.21035 0
-1048.82 -3.03793 0
-1047.13 -1.90723 0
-1045.43 -0.816117 0
-1043.72 0.231866 0
-1041.99 1.23508 0
-1040.26 2.19109 0
-1038.51 3.1052 0
-1036.76 3.97345 0
-1035 4.79515 0
-1033.23 5.5746 0
-1031.46 6.30558 0
-1029.68 6.99051 0
-1027.89 7.62998 0
-1026.11 8.22564 0
-1024.32 8.77548 0
-1022.52 9.28056 0
-1020.72 9.74212 0
-1018.93 10.1601 0
-1017.13 10.5354 0
-1015.33 10.8709 0
-1013.53 11.1641 0
-1011.73 11.4193 0
-1009.93 11.6329 0
-1008.13 11.8055 0
-1006.33 11.9438 0
-1004.54 12.0459 0
-1002.75 12.1126 0
-1000.96 12.1454 0
-999.168 12.1447 0
-997.383 12.1124 0
-995.601 12.05 0
-993.823 11.9603 0
-992.05 11.8403 0
-990.281 11.6954 0
-988.516 11.5225 0
-986.756 11.3273 0
-985 11.108 0
-983.248 10.8678 0
-981.502 10.6066 0
-979.761 10.3264 0
-978.025 10.0292 0
-976.293 9.7126 0
-974.569 9.38265 0
-972.846 9.03787 0
-971.131 8.68054 0