<?xml version="1.0"?>
<VTKFile type="StructuredGrid"  version="0.1" byte_order="LittleEndian" compressor="vtkZLibDataCompressor">
  <StructuredGrid WholeExtent="0 700 0 30 0 0">
    <Piece Extent="0 700 0 30 0 0">
      <PointData Vectors="Velocity">
        <DataArray type="Float32" Name="Velocity" NumberOfComponents="3" format="ascii">
-1076.63 107.362 0
-1077.01 97.0012 0
-1077.45 86.7698 0
-1077.91 76.7532 0
-1078.39 66.9917 0
-1078.92 57.549 0
-1079.49 48.5078 0
-1080.09 39.9264 0
-1080.71 31.842 0
-1081.32 24.2778 0
-1081.91 17.2536 0
-1082.47 10.7922 0
-1082.98 4.90934 0
-1083.41 -0.407604 0
-1083.69 -5.26233 0
-1083.87 -9.83091 0
-1084.13 -14.1121 0
-1084.39 -18.03 0
-1084.63 -21.566 0
-1084.85 -24.7128 0
-1085.05 -27.4687 0
-1085.22 -29.8454 0
-1085.34 -31.8579 0
-1085.42 -33.5261 0
-1085.44 -34.8727 0
-1085.4 -35.923 0
-1085.29 -36.7023 0
-1085.1 -37.2345 0
-1084.84 -37.5395 0
-1084.52 -37.6396 0
-1084.11 -37.5523 0
-1083.64 -37.2947 0
-1083.09 -36.8836 0
-1082.48 -36.335 0
-1081.79 -35.6615 0
-1081.04 -34.8767 0
-1080.23 -33.9951 0
-1079.35 -33.0274 0
-1078.41 -31.9841 0
-1077.41 -30.8753 0
-1076.36 -29.7125 0
-1075.25 -28.5041 0
-1074.09 -27.2584 0
-1072.88 -25.9841 0
-1071.62 -24.6877 0
-1070.32 -23.3755 0
-1068.97 -22.0545 0
-1067.58 -20.7309 0
-1066.16 -19.4098 0
-1064.7 -18.0951 0
-1063.2 -16.7935 0
-1061.67 -15.5071 0
-1060.11 -14.2398 0
-1058.52 -12.9961 0
-1056.91 -11.7789 0
-1055.27 -10.5899 0
-1053.6 -9.43401 0
-1051.92 -8.31077 0
-1050.21 -7.22242 0
-1048.49 -6.171 0
-1046.75 -5.15732 0
-1044.99 -4.18595 0
-1043.22 -3.25374 0
-1041.44 -2.36411 0
-1039.64 -1.5161 0
-1037.84 -0.710848 0
-1036.02 0.0490468 0
-1034.2 0.766639 0
-1032.37 1.43974 0
-1030.53 2.0714 0
-1028.69 2.65864 0
-1026.84 3.20081 0
-1024.99 3.70211 0
-1023.14 4.16074 0
-1021.29 4.57665 0
-1019.44 4.95321 0
-1017.58 5.2878 0
-1015.73 5.58219 0
-1013.87 5.83829 0
-1012.02 6.05682 0
-1010.17 6.23724 0
-1008.33 6.38321 0
-1006.49 6.49194 0
-1004.65 6.56744 0
-1002.81 6.60937 0
-1000.98 6.6207 0
-999.158 6.60141 0
-997.34 6.55251 0
-995.526 6.47613 0
-993.72 6.37332 0
-991.918 6.24427 0
-990.125 6.09021 0
-988.337 5.91435 0
-986.555 5.71575 0
-984.782 5.49704 0
-983.017 5.25864 0
-981.258 5.00364 0
-979.506 4.73204 0
-977.764 4.44499 0
-976.027 4.14295 0
-974.298 3.82992 0
-972.577 3.50526 0
-970.862 3.16966 0
-969.156 2.825 0
-967.457 2.47426 0
-965.763 2.11332 0
-964.079 1.74846 0
-962.402 1.38037 0
-960.73 1.00712 0
-959.066 0.632001 0
-957.409 0.253752 0
-955.758 -0.121714 0
-954.113 -0.498069 0
-952.474 -0.874285 0
-950.842 -1.24565 0
-949.214 -1.61629 0
-947.593 -1.9806 0
-945.976 -2.34232 0
-944.364 -2.69877 0
-942.756 -3.04859 0
-941.154 -3.39327 0
-939.556 -3.72964 0
-937.959 -4.05679 0
-936.369 -4.37627 0
-934.782 -4.68659 0
-933.198 -4.98957 0
-931.619 -5.28075 0
-930.04 -5.5635 0
-928.465 -5.83385 0
-926.892 -6.09466 0
-925.322 -6.34694 0
-923.754 -6.58512 0
-922.184 -6.8147 0
-920.618 -7.03144 0
-919.054 -7.23708 0
-917.491 -7.43284 0
-915.928 -7.61381 0
-914.366 -7.78565 0
-912.804 -7.94371 0
-911.243 -8.09277 0
-909.683 -8.23019 0
-908.121 -8.35375 0
-906.561 -8.46783 0
-904.999 -8.56861 0
-903.437 -8.66159 0
-901.874 -8.74117 0
-900.311 -8.81043 0
-898.749 -8.8699 0
-897.184 -8.91894 0
-895.618 -8.95735 0
-894.049 -8.98454 0
-892.481 -9.00542 0
-890.914 -9.01825 0
-889.343 -9.01876 0
-887.771 -9.01333 0
-886.196 -8.99594 0
-884.622 -8.9727 0
-883.044 -8.94331 0
-881.466 -8.90271 0
-879.886 -8.85565 0
-878.306 -8.80454 0
-876.724 -8.74581 0
-875.138 -8.68154 0
-873.546 -8.60815 0
-871.955 -8.53194 0
-870.363 -8.44966 0
-868.77 -8.36541 0
-867.175 -8.27457 0
-865.577 -8.18015 0
-863.978 -8.07997 0
-862.373 -7.97934 0
-860.77 -7.87511 0
-859.163 -7.76998 0
-857.559 -7.65977 0
-855.948 -7.54341 0
-854.337 -7.43068 0
-852.724 -7.31251 0
-851.111 -7.19652 0
-849.494 -7.07868 0
-847.878 -6.96123 0
-846.259 -6.83822 0
-844.636 -6.71907 0
-843.011 -6.5996 0
-841.391 -6.47993 0
-839.764 -6.36017 0
-838.139 -6.24137 0
-836.51 -6.12158 0
-834.879 -6.00607 0
-833.247 -5.8896 0
-831.616 -5.77447 0
-829.983 -5.66229 0
-828.348 -5.54893 0
-826.711 -5.43856 0
-825.075 -5.33433 0
-823.437 -5.23102 0
-821.798 -5.12995 0
-820.157 -5.02894 0
-818.516 -4.93348 0
-816.875 -4.8403 0
-815.233 -4.7461 0
-813.591 -4.66004 0
-811.946 -4.57171 0
-810.305 -4.48897 0
-808.66 -4.40967 0
-807.015 -4.33415 0
-805.371 -4.25883 0
-803.725 -4.19134 0
-802.08 -4.12463 0
-800.431 -4.06036 0
-798.785 -4.00113 0
-797.138 -3.94417 0
-795.492 -3.89253 0
-793.845 -3.84462 0
-792.199 -3.79511 0
-790.552 -3.75204 0
-788.905 -3.71198 0
-787.258 -3.6727 0
-785.614 -3.6394 0
-783.966 -3.60794 0
-782.318 -3.58118 0
-780.673 -3.5582 0
-779.029 -3.53702 0
-777.381 -3.5172 0
-775.737 -3.49963 0
-774.091 -3.49236 0
-772.448 -3.48203 0
-770.8 -3.47824 0
-769.156 -3.46813 0
-767.512 -3.47061 0
-765.87 -3.47178 0
-764.228 -3.47395 0
-762.584 -3.48025 0
-760.94 -3.48876 0
-759.301 -3.49875 0
-757.658 -3.51595 0
-756.017 -3.52748 0
-754.377 -3.54316 0
-752.737 -3.56305 0
-751.1 -3.58552 0
-749.459 -3.60947 0
-747.821 -3.63247 0
-746.184 -3.65688 0
-744.546 -3.68354 0
-742.909 -3.71084 0
-741.272 -3.74123 0
-739.638 -3.76975 0
-738.004 -3.80413 0
-736.371 -3.83613 0
-734.738 -3.86708 0
-733.104 -3.9002 0
-731.472 -3.93715 0
-729.837 -3.97489 0
-728.205 -4.00845 0
-726.576 -4.0469 0
-724.944 -4.08714 0
-723.316 -4.12184 0
-721.687 -4.15824 0
-720.061 -4.19442 0
-718.431 -4.23469 0
-716.802 -4.27221 0
-715.174 -4.3128 0
-713.548 -4.35005 0
-711.919 -4.38658 0
-710.294 -4.42807 0
-708.664 -4.4647 0
-707.04 -4.50023 0
-705.413 -4.53952 0
-703.789 -4.57758 0
-702.165 -4.61223 0
-700.539 -4.65111 0
-698.912 -4.68327 0
-697.291 -4.72007 0
-695.668 -4.75342 0
-694.046 -4.78285 0
-692.422 -4.81595 0
-690.799 -4.84601 0
-689.176 -4.87643 0
-687.553 -4.90881 0
-685.932 -4.93934 0
-684.31 -4.96945 0
-682.69 -4.99618 0
-681.069 -5.02044 0
-679.447 -5.04775 0
-677.827 -5.07109 0
-676.205 -5.09773 0
-674.585 -5.12274 0
-672.965 -5.14297 0
-671.349 -5.16518 0
-669.725 -5.18818 0
-668.102 -5.20589 0
-666.479 -5.22374 0
-664.862 -5.24409 0
-663.24 -5.26036 0
-661.62 -5.27336 0
-659.998 -5.28645 0
-658.378 -5.30016 0
-656.761 -5.31396 0
-655.138 -5.32786 0
-653.52 -5.33463 0
-651.899 -5.34347 0
-650.276 -5.35326 0
-648.656 -5.36097 0
-647.036 -5.36757 0
-645.415 -5.37645 0
-643.796 -5.37651 0
-642.176 -5.38131 0
-640.556 -5.38284 0
-638.933 -5.38287 0
-637.313 -5.38486 0
-635.688 -5.39126 0
-634.07 -5.38681 0
-632.448 -5.38712 0
-630.828 -5.38434 0
-629.206 -5.38204 0
-627.585 -5.37985 0
-625.963 -5.37167 0
-624.341 -5.36439 0
-622.715 -5.361 0
-621.094 -5.35766 0
-619.471 -5.35281 0
-617.85 -5.34172 0
-616.228 -5.33701 0
-614.604 -5.33041 0
-612.981 -5.32118 0
-611.358 -5.31037 0
-609.735 -5.30327 0
-608.11 -5.29477 0
-606.485 -5.28476 0
-604.86 -5.27424 0
-603.237 -5.26259 0
-601.609 -5.25209 0
-599.984 -5.24462 0
-598.36 -5.23346 0
-596.734 -5.22027 0
-595.111 -5.2112 0
-593.486 -5.19793 0
-591.858 -5.18546 0
-590.234 -5.17058 0
-588.61 -5.15589 0
-586.983 -5.14157 0
-585.359 -5.12959 0
-583.733 -5.1193 0
-582.105 -5.10279 0
-580.48 -5.09036 0
-578.856 -5.07686 0
-577.23 -5.06572 0
-575.605 -5.05822 0
-573.978 -5.0428 0
-572.351 -5.03312 0
-570.726 -5.01744 0
-569.097 -5.00445 0
-567.468 -4.99363 0
-565.84 -4.98029 0
-564.211 -4.97327 0
-562.585 -4.95881 0
-560.959 -4.94837 0
-559.331 -4.93115 0
-557.702 -4.91824 0
-556.076 -4.90778 0
-554.45 -4.89758 0
-552.823 -4.89086 0
-551.194 -4.88121 0
-549.565 -4.86542 0
-547.939 -4.86192 0
-546.31 -4.85275 0
-544.685 -4.84205 0
-543.056 -4.82804 0
-541.427 -4.8255 0
-539.794 -4.81575 0
-538.168 -4.80569 0
-536.539 -4.80116 0
-534.91 -4.79721 0
-533.283 -4.78542 0
-531.654 -4.77576 0
-530.025 -4.76987 0
-528.399 -4.76073 0
-526.773 -4.75643 0
-525.144 -4.7537 0
-523.517 -4.74509 0
-521.888 -4.74278 0
-520.256 -4.73888 0
-518.627 -4.73274 0
-516.999 -4.72981 0
-515.372 -4.72597 0
-513.747 -4.724 0
-512.119 -4.71675 0
-510.488 -4.71201 0
-508.86 -4.70943 0
-507.233 -4.71021 0
-505.604 -4.70756 0
-503.979 -4.70643 0
-502.351 -4.70498 0
-500.718 -4.70154 0
-499.088 -4.69568 0
-497.46 -4.69827 0
-495.831 -4.69997 0
-494.205 -4.69837 0
-492.576 -4.70399 0
-490.948 -4.70047 0
-489.32 -4.70636 0
-487.691 -4.70223 0
-486.065 -4.70204 0
-484.441 -4.70125 0
-482.815 -4.70444 0
-481.185 -4.70929 0
-479.559 -4.70892 0
-477.931 -4.70633 0
-476.302 -4.71721 0
-474.672 -4.71942 0
-473.046 -4.71719 0
-471.416 -4.71486 0
-469.789 -4.71854 0
-468.166 -4.72487 0
-466.536 -4.72104 0
-464.905 -4.72567 0
-463.284 -4.72776 0
-461.659 -4.73339 0
-460.03 -4.73791 0
-458.4 -4.74059 0
-456.777 -4.74638 0
-455.148 -4.75128 0
-453.52 -4.75218 0
-451.894 -4.75846 0
-450.266 -4.75909 0
-448.641 -4.76502 0
-447.013 -4.76562 0
-445.39 -4.77205 0
-443.764 -4.7747 0
-442.14 -4.77824 0
-440.511 -4.78259 0
-438.886 -4.78146 0
-437.256 -4.78771 0
-435.63 -4.79376 0
-434.004 -4.79386 0
-432.377 -4.80002 0
-430.752 -4.80803 0
-429.128 -4.80829 0
-427.503 -4.80514 0
-425.875 -4.81522 0
-424.244 -4.81973 0
-422.615 -4.82442 0
-420.986 -4.82869 0
-419.363 -4.83146 0
-417.74 -4.84007 0
-416.118 -4.84066 0
-414.493 -4.84148 0
-412.865 -4.84424 0
-411.24 -4.84943 0
-409.615 -4.85132 0
-407.99 -4.8516 0
-406.362 -4.85214 0
-404.734 -4.85651 0
-403.106 -4.85502 0
-401.479 -4.86043 0
-399.849 -4.85911 0
-398.228 -4.86558 0
-396.605 -4.87193 0
-394.981 -4.87342 0
-393.355 -4.87377 0
-391.729 -4.87932 0
-390.105 -4.88239 0
-388.478 -4.88414 0
-386.85 -4.88819 0
-385.226 -4.89008 0
-383.599 -4.88826 0
-381.974 -4.88981 0
-380.348 -4.89292 0
-378.723 -4.89575 0
-377.098 -4.8956 0
-375.474 -4.89982 0
-373.847 -4.90161 0
-372.224 -4.90294 0
-370.601 -4.89971 0
-368.975 -4.90114 0
-367.347 -4.89934 0
-365.723 -4.90465 0
-364.095 -4.90409 0
-362.467 -4.90149 0
-360.843 -4.90617 0
-359.223 -4.90366 0
-357.594 -4.90414 0
-355.973 -4.90479 0
-354.35 -4.90779 0
-352.722 -4.90043 0
-351.096 -4.90762 0
-349.472 -4.90353 0
-347.847 -4.90564 0
-346.222 -4.90212 0
-344.596 -4.90492 0
-342.97 -4.9025 0
-341.345 -4.90731 0
-339.722 -4.90298 0
-338.096 -4.90225 0
-336.468 -4.90568 0
-334.843 -4.8998 0
-333.217 -4.90414 0
-331.588 -4.90141 0
-329.962 -4.89859 0
-328.336 -4.89323 0
-326.711 -4.89591 0
-325.086 -4.89516 0
-323.46 -4.89162 0
-321.839 -4.89129 0
-320.214 -4.89644 0
-318.589 -4.89214 0
-316.96 -4.89271 0
-315.335 -4.88948 0
-313.707 -4.88607 0
-312.081 -4.88705 0
-310.455 -4.88394 0
-308.834 -4.88452 0
-307.208 -4.87238 0
-305.579 -4.87667 0
-303.956 -4.87462 0
-302.325 -4.87776 0
-300.704 -4.87362 0
-299.077 -4.87417 0
-297.449 -4.8733 0
-295.834 -4.87401 0
-294.203 -4.86936 0
-292.575 -4.87299 0
-290.945 -4.86405 0
-289.323 -4.86384 0
-287.697 -4.86258 0
-286.068 -4.85765 0
-284.446 -4.86397 0
-282.821 -4.85765 0
-281.198 -4.8549 0
-279.568 -4.84997 0
-277.945 -4.85763 0
-276.322 -4.85341 0
-274.695 -4.85491 0
-273.067 -4.85045 0
-271.445 -4.84664 0
-269.818 -4.85331 0
-268.191 -4.84568 0
-266.564 -4.84265 0
-264.934 -4.84646 0
-263.308 -4.84532 0
-261.683 -4.83803 0
-260.06 -4.84721 0
-258.433 -4.84183 0
-256.803 -4.83898 0
-255.176 -4.83827 0
-253.549 -4.83593 0
-251.923 -4.83454 0
-250.3 -4.83706 0
-248.673 -4.83371 0
-247.051 -4.83187 0
-245.419 -4.8365 0
-243.797 -4.83296 0
-242.172 -4.83301 0
-240.539 -4.83586 0
-238.912 -4.83309 0
-237.287 -4.83293 0
-235.667 -4.82968 0
-234.041 -4.82651 0
-232.421 -4.82268 0
-230.798 -4.82733 0
-229.169 -4.81973 0
-227.547 -4.82523 0
-225.918 -4.82335 0
-224.287 -4.8254 0
-222.662 -4.81564 0
-221.043 -4.81777 0
-219.41 -4.81647 0
-217.779 -4.81165 0
-216.156 -4.81103 0
-214.532 -4.81209 0
-212.906 -4.81327 0
-211.284 -4.81343 0
-209.661 -4.81301 0
-208.034 -4.81082 0
-206.402 -4.81121 0
-204.776 -4.81149 0
-203.151 -4.81128 0
-201.529 -4.81079 0
-199.904 -4.81047 0
-198.276 -4.81327 0
-196.646 -4.81199 0
-195.019 -4.81561 0
-193.389 -4.81214 0
-191.769 -4.81882 0
-190.14 -4.81199 0
-188.519 -4.81365 0
-186.891 -4.81702 0
-185.269 -4.81826 0
-183.646 -4.81543 0
-182.023 -4.81555 0
-180.404 -4.81322 0
-178.775 -4.80645 0
-177.149 -4.81278 0
-175.519 -4.81539 0
-173.894 -4.81548 0
-172.265 -4.81633 0
-170.644 -4.8178 0
-169.015 -4.81486 0
-167.388 -4.8159 0
-165.765 -4.81625 0
-164.139 -4.80852 0
-162.518 -4.81696 0
-160.895 -4.80432 0
-159.263 -4.80127 0
-157.636 -4.80394 0
-156.011 -4.80977 0
-154.387 -4.80995 0
-152.763 -4.80896 0
-151.136 -4.81015 0
-149.515 -4.80775 0
-147.889 -4.80606 0
-146.264 -4.81028 0
-144.639 -4.81194 0
-143.015 -4.80906 0
-141.389 -4.80755 0
-139.767 -4.81642 0
-138.139 -4.811 0
-136.513 -4.8113 0
-134.89 -4.81291 0
-133.268 -4.81233 0
-131.641 -4.81015 0
-130.018 -4.81507 0
-128.389 -4.81638 0
-126.764 -4.81315 0
-125.143 -4.81892 0
-123.517 -4.81367 0
-121.885 -4.81443 0
-120.257 -4.81656 0
-118.634 -4.81577 0
-117.009 -4.81531 0
-115.382 -4.81908 0
-113.754 -4.81639 0
-112.128 -4.8191 0
-110.505 -4.81955 0
-108.881 -4.8153 0
-107.257 -4.81615 0
-105.626 -4.82337 0
-104.003 -4.81748 0
-102.382 -4.81784 0
-100.755 -4.81516 0
-99.1289 -4.81642 0
-97.502 -4.81846 0
-95.8771 -4.81999 0
-94.2512 -4.82106 0
-92.6258 -4.83188 0
-91.0032 -4.82998 0
-89.3777 -4.82645 0
-87.755 -4.83179 0
-86.125 -4.82231 0
-84.4989 -4.82174 0
-82.8739 -4.82411 0
-81.2436 -4.82667 0
-79.6228 -4.82508 0
-77.9961 -4.82936 0
-76.3752 -4.82728 0
-74.7432 -4.82462 0
-73.1174 -4.83055 0
-71.4947 -4.82812 0
-69.8708 -4.82394 0
-68.2474 -4.83403 0
-66.6149 -4.82673 0
-64.9929 -4.82643 0
-63.3648 -4.82653 0
-61.7445 -4.8265 0
-60.1188 -4.83252 0
-58.4932 -4.83045 0
-56.8669 -4.82802 0
-55.2446 -4.82598 0
-53.6226 -4.82816 0
-51.9962 -4.82849 0
-50.3719 -4.83339 0
-48.7389 -4.83386 0
-47.1163 -4.83275 0
-45.4966 -4.83153 0
-43.8733 -4.82928 0
-42.2409 -4.83172 0
-40.6169 -4.83253 0
-38.9888 -4.83104 0
-37.3665 -4.83224 0
-35.7444 -4.83062 0
-34.1179 -4.82806 0
-32.4968 -4.83597 0
-30.8765 -4.8323 0
-29.2462 -4.82474 0
-27.6208 -4.8252 0
-25.9967 -4.82756 0
-24.3743 -4.82849 0
-22.749 -4.82658 0
-21.1212 -4.82387 0
-19.4965 -4.82768 0
-17.8723 -4.82682 0
-16.2474 -4.83183 0
-14.6227 -4.83273 0
-12.9973 -4.83611 0
-11.3752 -4.83587 0
-9.7531 -4.83035 0
-8.13016 -4.83211 0
-6.50801 -4.83092 0
-4.88118 -4.83239 0
-3.25078 -4.83158 0
-1.62641 -4.83181 0
0 -4.83622 0
-1086.99 107.78 0
-1087.26 97.3673 0
-1087.54 87.1067 0
-1087.79 77.0695 0
-1088.02 67.2804 0
-1088.2 57.7955 0
-1088.35 48.7028 0
-1088.47 40.0727 0
-1088.56 31.9499 0
-1088.62 24.3603 0
-1088.64 17.3229 0
-1088.61 10.8588 0
-1088.52 4.9842 0
-1088.42 -0.320345 0
-1088.36 -5.17019 0
-1088.36 -9.74502 0
-1088.27 -14.0355 0
-1088.16 -17.9569 0
-1088.02 -21.4957 0
-1087.86 -24.6402 0
-1087.67 -27.3892 0
-1087.47 -29.7521 0
-1087.24 -31.7427 0
-1086.98 -33.3795 0
-1086.69 -34.6864 0
-1086.35 -35.6907 0
-1085.97 -36.4177 0
-1085.55 -36.8933 0
-1085.07 -37.14 0
-1084.54 -37.1795 0
-1083.96 -37.0307 0
-1083.32 -36.7125 0
-1082.63 -36.2399 0
-1081.88 -35.6293 0
-1081.08 -34.8955 0
-1080.22 -34.0524 0
-1079.32 -33.1123 0
-1078.36 -32.088 0
-1077.35 -30.9901 0
-1076.29 -29.8289 0
-1075.19 -28.6142 0
-1074.04 -27.3566 0
-1072.85 -26.0636 0
-1071.61 -24.743 0
-1070.33 -23.4032 0
-1069.02 -22.0507 0
-1067.67 -20.6904 0
-1066.28 -19.3295 0
-1064.86 -17.9736 0
-1063.41 -16.6258 0
-1061.92 -15.2921 0
-1060.41 -13.9752 0
-1058.87 -12.6805 0
-1057.31 -11.4123 0
-1055.72 -10.1702 0
-1054.11 -8.95917 0
-1052.48 -7.78123 0
-1050.83 -6.63873 0
-1049.16 -5.53266 0
-1047.47 -4.46443 0
-1045.77 -3.43561 0
-1044.06 -2.44928 0
-1042.33 -1.50554 0
-1040.58 -0.604439 0
-1038.83 0.254343 0
-1037.07 1.06805 0
-1035.3 1.83628 0
-1033.52 2.56127 0
-1031.73 3.24203 0
-1029.94 3.87762 0
-1028.14 4.4694 0
-1026.33 5.01479 0
-1024.53 5.51882 0
-1022.72 5.97999 0
-1020.9 6.39678 0
-1019.09 6.77312 0
-1017.28 7.10797 0
-1015.46 7.4031 0
-1013.65 7.65643 0
-1011.83 7.87403 0
-1010.02 8.05279 0
-1008.21 8.1941 0
-1006.4 8.30064 0
-1004.59 8.37283 0
-1002.79 8.41072 0
-1000.99 8.417 0
-999.197 8.39301 0
-997.406 8.33891 0
-995.619 8.25711 0
-993.837 8.14845 0
-992.061 8.01335 0
-990.291 7.85409 0
-988.525 7.67231 0
-986.765 7.46647 0
-985.011 7.24132 0
-983.263 6.99715 0
-981.522 6.73497 0
-979.786 6.455 0
-978.057 6.16183 0
-976.333 5.85344 0
-974.615 5.53368 0
-972.904 5.20224 0
-971.2 4.86093 0
-969.502 4.50881 0
-967.809 4.15049 0
-966.122 3.78424 0
-964.443 3.41281 0
-962.769 3.03873 0
-961.102 2.65888 0
-959.44 2.27709 0
-957.783 1.89515 0
-956.132 1.51118 0
-954.486 1.12974 0
-952.845 0.750072 0
-951.209 0.371459 0
-949.578 -0.00342878 0
-947.952 -0.374699 0
-946.33 -0.740467 0
-944.714 -1.10058 0
-943.1 -1.45481 0
-941.491 -1.80212 0
-939.883 -2.14111 0
-938.281 -2.4736 0
-936.681 -2.79716 0
-935.086 -3.10962 0
-933.494 -3.41574 0
-931.902 -3.70989 0
-930.313 -3.99458 0
-928.729 -4.26802 0
-927.144 -4.53105 0
-925.563 -4.78366 0
-923.983 -5.02534 0
-922.405 -5.25466 0
-920.828 -5.47338 0
-919.252 -5.68119 0
-917.676 -5.8766 0
-916.102 -6.05862 0
-914.529 -6.23012 0
-912.957 -6.39144 0
-911.384 -6.53762 0
-909.812 -6.67565 0
-908.24 -6.80003 0
-906.667 -6.91424 0
-905.095 -7.01589 0
-903.521 -7.10614 0
-901.949 -7.18583 0
-900.374 -7.25538 0
-898.802 -7.31456 0
-897.228 -7.36154 0
-895.65 -7.39993 0
-894.075 -7.42557 0
-892.498 -7.44514 0
-890.919 -7.45542 0
-889.34 -7.45581 0
-887.759 -7.44891 0
-886.179 -7.43112 0
-884.595 -7.40637 0
-883.011 -7.3727 0
-881.425 -7.3312 0
-879.838 -7.28548 0
-878.25 -7.23214 0
-876.66 -7.17119 0
-875.067 -7.1037 0
-873.472 -7.03042 0
-871.878 -6.95135 0
-870.28 -6.86801 0
-868.683 -6.78141 0
-867.083 -6.68848 0
-865.481 -6.59443 0
-863.878 -6.49102 0
-862.272 -6.38774 0
-860.665 -6.28206 0
-859.057 -6.17476 0
-857.447 -6.06241 0
-855.837 -5.94606 0
-854.223 -5.83004 0
-852.609 -5.71227 0
-850.993 -5.59354 0
-849.378 -5.4751 0
-847.758 -5.35483 0
-846.138 -5.2313 0
-844.516 -5.10771 0
-842.895 -4.98849 0
-841.27 -4.86699 0
-839.648 -4.74759 0
-838.02 -4.62606 0
-836.391 -4.50776 0
-834.763 -4.38867 0
-833.133 -4.27274 0
-831.501 -4.15564 0
-829.871 -4.04338 0
-828.238 -3.92845 0
-826.605 -3.81747 0
-824.97 -3.71161 0
-823.336 -3.60778 0
-821.699 -3.50477 0
-820.062 -3.40424 0
-818.424 -3.30616 0
-816.784 -3.21188 0
-815.146 -3.11976 0
-813.506 -3.03191 0
-811.865 -2.94322 0
-810.224 -2.86078 0
-808.582 -2.78044 0
-806.941 -2.70265 0
-805.299 -2.63024 0
-803.657 -2.56091 0
-802.013 -2.49383 0
-800.372 -2.42802 0
-798.728 -2.36998 0
-797.086 -2.31296 0
-795.442 -2.26014 0
-793.798 -2.212 0
-792.153 -2.16442 0
-790.51 -2.11913 0
-788.866 -2.07863 0
-787.223 -2.04234 0
-785.579 -2.0082 0
-783.936 -1.97822 0
-782.294 -1.94998 0
-780.651 -1.92948 0
-779.008 -1.90509 0
-777.367 -1.88741 0
-775.725 -1.87192 0
-774.084 -1.86139 0
-772.439 -1.85285 0
-770.797 -1.8472 0
-769.153 -1.84106 0
-767.513 -1.84203 0
-765.874 -1.84447 0
-764.233 -1.84872 0
-762.591 -1.85181 0
-760.951 -1.86219 0
-759.31 -1.87141 0
-757.673 -1.88551 0
-756.034 -1.90175 0
-754.394 -1.91798 0
-752.756 -1.93957 0
-751.12 -1.96111 0
-749.483 -1.98411 0
-747.845 -2.00831 0
-746.209 -2.03376 0
-744.572 -2.05969 0
-742.938 -2.08813 0
-741.305 -2.11894 0
-739.67 -2.15129 0
-738.036 -2.18216 0
-736.404 -2.21488 0
-734.771 -2.24784 0
-733.14 -2.28319 0
-731.507 -2.31762 0
-729.876 -2.35599 0
-728.246 -2.39153 0
-726.614 -2.42919 0
-724.984 -2.46845 0
-723.354 -2.50386 0
-721.724 -2.54253 0
-720.096 -2.57814 0
-718.467 -2.61836 0
-716.839 -2.65653 0
-715.21 -2.69756 0
-713.582 -2.73508 0
-711.958 -2.77416 0
-710.329 -2.81158 0
-708.703 -2.85252 0
-707.076 -2.88785 0
-705.454 -2.92719 0
-703.828 -2.96417 0
-702.202 -3.00043 0
-700.576 -3.03801 0
-698.949 -3.07314 0
-697.324 -3.10908 0
-695.701 -3.14231 0
-694.076 -3.17396 0
-692.454 -3.20439 0
-690.83 -3.2371 0
-689.208 -3.26807 0
-687.587 -3.3011 0
-685.963 -3.33085 0
-684.341 -3.36052 0
-682.716 -3.38796 0
-681.096 -3.41246 0
-679.472 -3.44006 0
-677.851 -3.46374 0
-676.229 -3.48921 0
-674.608 -3.51425 0
-672.986 -3.5368 0
-671.365 -3.55787 0
-669.742 -3.57864 0
-668.12 -3.59806 0
-666.501 -3.6183 0
-664.878 -3.63421 0
-663.256 -3.649 0
-661.635 -3.66464 0
-660.014 -3.67916 0
-658.393 -3.69301 0
-656.771 -3.70517 0
-655.148 -3.71752 0
-653.526 -3.72667 0
-651.907 -3.73403 0
-650.286 -3.74535 0
-648.664 -3.7522 0
-647.044 -3.75985 0
-645.421 -3.76504 0
-643.799 -3.77194 0
-642.177 -3.77019 0
-640.558 -3.77478 0
-638.935 -3.77522 0
-637.313 -3.78023 0
-635.692 -3.77882 0
-634.069 -3.77953 0
-632.448 -3.77744 0
-630.826 -3.77459 0
-629.203 -3.7721 0
-627.579 -3.76816 0
-625.959 -3.76215 0
-624.335 -3.75511 0
-622.71 -3.75261 0
-621.089 -3.7493 0
-619.465 -3.74431 0
-617.842 -3.73406 0
-616.22 -3.72761 0
-614.596 -3.72064 0
-612.973 -3.71051 0
-611.35 -3.70117 0
-609.724 -3.69302 0
-608.1 -3.68323 0
-606.474 -3.6726 0
-604.85 -3.66226 0
-603.224 -3.6495 0
-601.598 -3.64142 0
-599.974 -3.63058 0
-598.349 -3.6207 0
-596.723 -3.60874 0
-595.098 -3.59731 0
-593.474 -3.58505 0
-591.849 -3.57117 0
-590.22 -3.55719 0
-588.597 -3.54144 0
-586.973 -3.52954 0
-585.346 -3.51875 0
-583.72 -3.50754 0
-582.096 -3.49239 0
-580.471 -3.47742 0
-578.843 -3.46584 0
-577.22 -3.45266 0
-575.594 -3.44261 0
-573.965 -3.42944 0
-572.338 -3.41703 0
-570.711 -3.40329 0
-569.083 -3.38978 0
-567.457 -3.3782 0
-565.829 -3.36713 0
-564.202 -3.35918 0
-562.573 -3.34552 0
-560.946 -3.33234 0
-559.317 -3.31864 0
-557.692 -3.30381 0
-556.064 -3.29449 0
-554.438 -3.28351 0
-552.812 -3.27571 0
-551.184 -3.26611 0
-549.558 -3.2494 0
-547.931 -3.24525 0
-546.305 -3.23916 0
-544.674 -3.22654 0
-543.044 -3.21349 0
-541.415 -3.20642 0
-539.784 -3.2028 0
-538.159 -3.19266 0
-536.534 -3.18538 0
-534.909 -3.17909 0
-533.275 -3.17102 0
-531.647 -3.16322 0
-530.021 -3.15402 0
-528.394 -3.14899 0
-526.766 -3.13983 0
-525.137 -3.13785 0
-523.514 -3.13311 0
-521.884 -3.12459 0
-520.254 -3.1215 0
-518.623 -3.11788 0
-516.995 -3.11295 0
-515.369 -3.11275 0
-513.739 -3.10734 0
-512.112 -3.10156 0
-510.485 -3.09751 0
-508.858 -3.09478 0
-507.23 -3.09398 0
-505.603 -3.09442 0
-503.975 -3.09455 0
-502.344 -3.08959 0
-500.715 -3.0842 0
-499.09 -3.08195 0
-497.462 -3.08199 0
-495.83 -3.08376 0
-494.203 -3.08755 0
-492.578 -3.08601 0
-490.949 -3.08721 0
-489.32 -3.08954 0
-487.696 -3.08919 0
-486.067 -3.08931 0
-484.439 -3.08509 0
-482.81 -3.09042 0
-481.185 -3.09621 0
-479.557 -3.09459 0
-477.927 -3.09232 0
-476.302 -3.09944 0
-474.673 -3.10347 0
-473.046 -3.10271 0
-471.423 -3.1028 0
-469.794 -3.10901 0
-468.167 -3.10718 0
-466.539 -3.10838 0
-464.916 -3.1153 0
-463.289 -3.11639 0
-461.661 -3.11906 0
-460.032 -3.12093 0
-458.405 -3.12705 0
-456.781 -3.13277 0
-455.153 -3.13769 0
-453.527 -3.13956 0
-451.9 -3.14187 0
-450.271 -3.14687 0
-448.642 -3.14992 0
-447.018 -3.15185 0
-445.389 -3.15868 0
-443.765 -3.16306 0
-442.139 -3.16455 0
-440.515 -3.16647 0
-438.888 -3.17144 0
-437.264 -3.17252 0
-435.637 -3.17968 0
-434.012 -3.18349 0
-432.383 -3.19118 0
-430.758 -3.18914 0
-429.13 -3.19381 0
-427.503 -3.19488 0
-425.876 -3.20071 0
-424.25 -3.20473 0
-422.624 -3.20966 0
-420.995 -3.21635 0
-419.371 -3.22055 0
-417.744 -3.22604 0
-416.12 -3.22836 0
-414.493 -3.22821 0
-412.867 -3.23228 0
-411.241 -3.24002 0
-409.619 -3.23952 0
-407.988 -3.24246 0
-406.364 -3.23923 0
-404.736 -3.24143 0
-403.111 -3.24355 0
-401.484 -3.24364 0
-399.856 -3.25035 0
-398.234 -3.25642 0
-396.61 -3.25894 0
-394.984 -3.26062 0
-393.361 -3.26375 0
-391.734 -3.26746 0
-390.108 -3.26728 0
-388.485 -3.26922 0
-386.854 -3.2759 0
-385.227 -3.2767 0
-383.602 -3.27643 0
-381.975 -3.27763 0
-380.351 -3.2815 0
-378.725 -3.28154 0
-377.104 -3.28283 0
-375.475 -3.28632 0
-373.849 -3.28792 0
-372.224 -3.28932 0
-370.601 -3.287 0
-368.975 -3.28759 0
-367.348 -3.28677 0
-365.722 -3.28969 0
-364.095 -3.29104 0
-362.472 -3.29058 0
-360.847 -3.29063 0
-359.22 -3.29529 0
-357.596 -3.29196 0
-355.97 -3.29382 0
-354.347 -3.29079 0
-352.723 -3.29587 0
-351.097 -3.29163 0
-349.471 -3.29318 0
-347.844 -3.29432 0
-346.223 -3.29396 0
-344.598 -3.29116 0
-342.97 -3.28953 0
-341.342 -3.29536 0
-339.715 -3.29058 0
-338.093 -3.2907 0
-336.468 -3.29092 0
-334.843 -3.28829 0
-333.215 -3.29014 0
-331.584 -3.29001 0
-329.962 -3.28727 0
-328.34 -3.28195 0
-326.712 -3.28284 0
-325.086 -3.28118 0
-323.464 -3.28173 0
-321.838 -3.28379 0
-320.211 -3.28047 0
-318.585 -3.27738 0
-316.96 -3.2771 0
-315.332 -3.27747 0
-313.706 -3.27326 0
-312.081 -3.27423 0
-310.454 -3.27526 0
-308.828 -3.27047 0
-307.207 -3.26602 0
-305.583 -3.2644 0
-303.956 -3.2633 0
-302.329 -3.26549 0
-300.705 -3.26385 0
-299.078 -3.26144 0
-297.451 -3.26152 0
-295.826 -3.25869 0
-294.201 -3.25518 0
-292.572 -3.25718 0
-290.948 -3.25484 0
-289.319 -3.25342 0
-287.694 -3.25225 0
-286.068 -3.24587 0
-284.442 -3.24549 0
-282.816 -3.24599 0
-281.193 -3.24154 0
-279.57 -3.24531 0
-277.944 -3.24306 0
-276.321 -3.24252 0
-274.695 -3.23869 0
-273.068 -3.23911 0
-271.437 -3.23843 0
-269.812 -3.2345 0
-268.187 -3.23497 0
-266.56 -3.23064 0
-264.934 -3.23223 0
-263.306 -3.23158 0
-261.684 -3.22681 0
-260.055 -3.23103 0
-258.427 -3.22779 0
-256.801 -3.22721 0
-255.175 -3.2236 0
-253.554 -3.22351 0
-251.931 -3.22569 0
-250.302 -3.22496 0
-248.674 -3.22214 0
-247.049 -3.2219 0
-245.424 -3.22006 0
-243.793 -3.22282 0
-242.169 -3.22206 0
-240.543 -3.22135 0
-238.918 -3.22225 0
-237.29 -3.22154 0
-235.665 -3.21574 0
-234.037 -3.21425 0
-232.415 -3.21265 0
-230.796 -3.21497 0
-229.169 -3.21023 0
-227.54 -3.21164 0
-225.916 -3.20905 0
-224.29 -3.21271 0
-222.663 -3.20368 0
-221.036 -3.20599 0
-219.408 -3.19776 0
-217.781 -3.20318 0
-216.155 -3.20091 0
-214.53 -3.20085 0
-212.91 -3.20338 0
-211.282 -3.20265 0
-209.656 -3.20403 0
-208.029 -3.1971 0
-206.402 -3.19924 0
-204.773 -3.1986 0
-203.146 -3.20165 0
-201.523 -3.20219 0
-199.898 -3.19849 0
-198.272 -3.19865 0
-196.646 -3.19988 0
-195.017 -3.19996 0
-193.395 -3.20221 0
-191.768 -3.20343 0
-190.144 -3.20383 0
-188.52 -3.20005 0
-186.896 -3.20719 0
-185.272 -3.20491 0
-183.646 -3.2009 0
-182.022 -3.20476 0
-180.399 -3.19907 0
-178.775 -3.19704 0
-177.149 -3.19555 0
-175.522 -3.20011 0
-173.895 -3.2009 0
-172.269 -3.20191 0
-170.643 -3.20158 0
-169.019 -3.20564 0
-167.393 -3.20381 0
-165.766 -3.20398 0
-164.14 -3.20146 0
-162.512 -3.20183 0
-160.886 -3.19464 0
-159.265 -3.19122 0
-157.641 -3.19588 0
-156.013 -3.19601 0
-154.389 -3.19555 0
-152.765 -3.19743 0
-151.139 -3.19678 0
-149.512 -3.19597 0
-147.891 -3.19624 0
-146.266 -3.2003 0
-144.64 -3.2002 0
-143.012 -3.19785 0
-141.392 -3.19532 0
-139.761 -3.19811 0
-138.135 -3.19777 0
-136.513 -3.20116 0
-134.889 -3.20446 0
-133.265 -3.20307 0
-131.638 -3.19797 0
-130.014 -3.20428 0
-128.393 -3.20228 0
-126.768 -3.20606 0
-125.137 -3.20727 0
-123.507 -3.20023 0
-121.883 -3.19903 0
-120.257 -3.20365 0
-118.632 -3.2064 0
-117.007 -3.2004 0
-115.38 -3.2063 0
-113.754 -3.20742 0
-112.134 -3.20889 0
-110.507 -3.20656 0
-108.88 -3.20404 0
-107.257 -3.20615 0
-105.63 -3.20839 0
-104.003 -3.20605 0
-102.38 -3.2085 0
-100.755 -3.19834 0
-99.1243 -3.20699 0
-97.5051 -3.20607 0
-95.8777 -3.21025 0
-94.2525 -3.2112 0
-92.6284 -3.21409 0
-91.0017 -3.21624 0
-89.3777 -3.21509 0
-87.7525 -3.21484 0
-86.1253 -3.21293 0
-84.4982 -3.20814 0
-82.8717 -3.2083 0
-81.2501 -3.21621 0
-79.6231 -3.21378 0
-77.997 -3.21344 0
-76.3739 -3.21427 0
-74.7472 -3.2135 0
-73.1248 -3.21889 0
-71.4933 -3.21774 0
-69.8662 -3.21602 0
-68.245 -3.21695 0
-66.6216 -3.21698 0
-64.997 -3.21547 0
-63.3695 -3.21617 0
-61.7416 -3.21493 0
-60.1186 -3.21763 0
-58.489 -3.21553 0
-56.8668 -3.22116 0
-55.2413 -3.21916 0
-53.6179 -3.2152 0
-51.9951 -3.21932 0
-50.3686 -3.21928 0
-48.7435 -3.22002 0
-47.1179 -3.22133 0
-45.4951 -3.22477 0
-43.8687 -3.21707 0
-42.2434 -3.21483 0
-40.6162 -3.22074 0
-38.9917 -3.21933 0
-37.367 -3.21955 0
-35.7424 -3.21738 0
-34.1161 -3.22036 0
-32.4951 -3.2227 0
-30.8698 -3.22088 0
-29.2447 -3.21461 0
-27.6177 -3.21546 0
-25.9962 -3.21762 0
-24.3714 -3.21362 0
-22.7457 -3.21495 0
-21.1216 -3.21211 0
-19.4968 -3.21762 0
-17.872 -3.21589 0
-16.2503 -3.22006 0
-14.6257 -3.21997 0
-12.9995 -3.2235 0
-11.3773 -3.22352 0
-9.75117 -3.2202 0
-8.12666 -3.2211 0
-6.50206 -3.22093 0
-4.8766 -3.22199 0
-3.25371 -3.22308 0
-1.62758 -3.22116 0
0 -3.22218 0
-1097.61 108.548 0
-1097.49 97.9166 0
-1097.53 87.652 0
-1097.53 77.6231 0
-1097.46 67.858 0
-1097.31 58.4027 0
-1097.07 49.3246 0
-1096.76 40.693 0
-1096.39 32.5631 0
-1095.95 24.9704 0
-1095.47 17.9391 0
-1094.93 11.4815 0
-1094.36 5.59349 0
-1093.82 0.214931 0
-1093.35 -4.75054 0
-1092.93 -9.34743 0
-1092.51 -13.6005 0
-1092.04 -17.5116 0
-1091.53 -21.0406 0
-1090.98 -24.1811 0
-1090.42 -26.929 0
-1089.84 -29.2894 0
-1089.25 -31.2747 0
-1088.64 -32.9017 0
-1088.03 -34.194 0
-1087.4 -35.1765 0
-1086.74 -35.8764 0
-1086.07 -36.3188 0
-1085.37 -36.5291 0
-1084.63 -36.5282 0
-1083.86 -36.3368 0
-1083.06 -35.9733 0
-1082.21 -35.4559 0
-1081.33 -34.7995 0
-1080.41 -34.0186 0
-1079.44 -33.1293 0
-1078.44 -32.1437 0
-1077.4 -31.074 0
-1076.32 -29.9323 0
-1075.2 -28.7271 0
-1074.05 -27.4711 0
-1072.85 -26.1725 0
-1071.62 -24.8398 0
-1070.36 -23.4816 0
-1069.07 -22.1055 0
-1067.74 -20.7173 0
-1066.38 -19.3237 0
-1064.99 -17.9309 0
-1063.57 -16.5439 0
-1062.13 -15.1678 0
-1060.66 -13.8063 0
-1059.17 -12.464 0
-1057.65 -11.1456 0
-1056.11 -9.85383 0
-1054.55 -8.59049 0
-1052.97 -7.35875 0
-1051.36 -6.16191 0
-1049.75 -5.00157 0
-1048.11 -3.87899 0
-1046.46 -2.79586 0
-1044.8 -1.75439 0
-1043.12 -0.754332 0
-1041.43 0.202289 0
-1039.73 1.11409 0
-1038.02 1.98241 0
-1036.3 2.80466 0
-1034.57 3.58096 0
-1032.84 4.31399 0
-1031.09 5.00108 0
-1029.34 5.64123 0
-1027.58 6.23732 0
-1025.82 6.78789 0
-1024.06 7.29453 0
-1022.29 7.75796 0
-1020.52 8.17738 0
-1018.74 8.5544 0
-1016.97 8.89005 0
-1015.19 9.18465 0
-1013.42 9.4391 0
-1011.64 9.65493 0
-1009.86 9.83176 0
-1008.08 9.97146 0
-1006.31 10.0761 0
-1004.54 10.1458 0
-1002.76 10.1815 0
-1001 10.184 0
-999.23 10.1564 0
-997.466 10.0989 0
-995.707 10.013 0
-993.951 9.89962 0
-992.199 9.76057 0
-990.452 9.59528 0
-988.708 9.40788 0
-986.969 9.19765 0
-985.235 8.96792 0
-983.505 8.71809 0
-981.78 8.45052 0
-980.06 8.16498 0
-978.345 7.86615 0
-976.634 7.5533 0
-974.929 7.22753 0
-973.228 6.89023 0
-971.534 6.54262 0
-969.844 6.18611 0