<?xml version="1.0"?>
<VTKFile type="StructuredGrid"  version="0.1" byte_order="LittleEndian" compressor="vtkZLibDataCompressor">
  <StructuredGrid WholeExtent="0 700 0 30 0 0">
    <Piece Extent="0 700 0 30 0 0">
      <PointData Vectors="Velocity">
        <DataArray type="Float32" Name="Velocity" NumberOfComponents="3" format="ascii">
-1063.26 95.6733 0
-1063.7 85.9948 0
-1064.19 76.4424 0
-1064.69 67.1071 0
-1065.22 58.03 0
-1065.79 49.2861 0
-1066.41 40.9527 0
-1067.06 33.089 0
-1067.7 25.726 0
-1068.33 18.8874 0
-1068.93 12.5911 0
-1069.49 6.85414 0
-1069.99 1.69578 0
-1070.36 -2.93235 0
-1070.59 -7.19926 0
-1070.84 -11.2033 0
-1071.07 -14.8994 0
-1071.3 -18.2462 0
-1071.54 -21.2035 0
-1071.76 -23.7668 0
-1071.93 -25.9569 0
-1072.06 -27.7779 0
-1072.15 -29.2647 0
-1072.17 -30.4335 0
-1072.13 -31.3134 0
-1072.01 -31.934 0
-1071.82 -32.3146 0
-1071.55 -32.4778 0
-1071.21 -32.4539 0
-1070.79 -32.2523 0
-1070.29 -31.8918 0
-1069.71 -31.3975 0
-1069.07 -30.7765 0
-1068.36 -30.0488 0
-1067.57 -29.2236 0
-1066.73 -28.3144 0
-1065.82 -27.3359 0
-1064.85 -26.3 0
-1063.81 -25.2089 0
-1062.73 -24.0814 0
-1061.59 -22.9191 0
-1060.4 -21.735 0
-1059.16 -20.5295 0
-1057.87 -19.3197 0
-1056.54 -18.1059 0
-1055.17 -16.8933 0
-1053.76 -15.6881 0
-1052.31 -14.4962 0
-1050.83 -13.3165 0
-1049.32 -12.1623 0
-1047.78 -11.0285 0
-1046.2 -9.92283 0
-1044.61 -8.84547 0
-1042.98 -7.80231 0
-1041.34 -6.7926 0
-1039.68 -5.81833 0
-1037.99 -4.88308 0
-1036.29 -3.98552 0
-1034.57 -3.12973 0
-1032.84 -2.31196 0
-1031.1 -1.54017 0
-1029.34 -0.808037 0
-1027.57 -0.119037 0
-1025.8 0.526078 0
-1024.01 1.1321 0
-1022.22 1.69452 0
-1020.43 2.20987 0
-1018.63 2.68453 0
-1016.82 3.11893 0
-1015.02 3.51195 0
-1013.2 3.86304 0
-1011.39 4.17524 0
-1009.58 4.44693 0
-1007.77 4.68217 0
-1005.96 4.88143 0
-1004.15 5.04076 0
-1002.34 5.16732 0
-1000.54 5.26227 0
-998.741 5.32263 0
-996.945 5.35218 0
-995.153 5.35101 0
-993.366 5.32005 0
-991.584 5.26438 0
-989.809 5.17796 0
-988.04 5.07042 0
-986.275 4.93605 0
-984.517 4.77947 0
-982.767 4.60483 0
-981.022 4.40913 0
-979.287 4.19433 0
-977.557 3.9642 0
-975.835 3.71636 0
-974.119 3.45403 0
-972.411 3.17761 0
-970.709 2.89317 0
-969.016 2.59445 0
-967.33 2.28695 0
-965.652 1.97315 0
-963.981 1.65368 0
-962.319 1.3276 0
-960.661 0.99528 0
-959.009 0.661494 0
-957.364 0.323685 0
-955.727 -0.0161496 0
-954.095 -0.355098 0
-952.47 -0.693985 0
-950.85 -1.03051 0
-949.239 -1.3661 0
-947.633 -1.69929 0
-946.032 -2.02678 0
-944.436 -2.3485 0
-942.846 -2.6645 0
-941.258 -2.97616 0
-939.676 -3.28157 0
-938.099 -3.57788 0
-936.525 -3.86831 0
-934.954 -4.14949 0
-933.387 -4.423 0
-931.823 -4.68637 0
-930.261 -4.93799 0
-928.702 -5.18282 0
-927.147 -5.41539 0
-925.594 -5.64035 0
-924.04 -5.85236 0
-922.49 -6.05555 0
-920.94 -6.24677 0
-919.395 -6.42726 0
-917.849 -6.59817 0
-916.306 -6.75404 0
-914.763 -6.90316 0
-913.217 -7.03741 0
-911.674 -7.16321 0
-910.132 -7.27586 0
-908.588 -7.37925 0
-907.046 -7.47365 0
-905.502 -7.55546 0
-903.956 -7.62642 0
-902.41 -7.68881 0
-900.863 -7.74076 0
-899.318 -7.78294 0
-897.769 -7.81654 0
-896.219 -7.83879 0
-894.668 -7.85192 0
-893.115 -7.85756 0
-891.562 -7.85665 0
-890.006 -7.84472 0
-888.449 -7.82545 0
-886.892 -7.80177 0
-885.333 -7.76825 0
-883.773 -7.72766 0
-882.209 -7.68197 0
-880.644 -7.63117 0
-879.078 -7.5738 0
-877.507 -7.51447 0
-875.938 -7.44786 0
-874.365 -7.37668 0
-872.79 -7.30084 0
-871.215 -7.22149 0
-869.637 -7.13725 0
-868.055 -7.04931 0
-866.473 -6.95981 0
-864.888 -6.86606 0
-863.303 -6.77223 0
-861.714 -6.67564 0
-860.126 -6.57491 0
-858.535 -6.475 0
-856.942 -6.3737 0
-855.347 -6.27035 0
-853.749 -6.16545 0
-852.152 -6.06263 0
-850.552 -5.9596 0
-848.952 -5.85549 0
-847.348 -5.75432 0
-845.744 -5.65012 0
-844.139 -5.55122 0
-842.532 -5.44954 0
-840.926 -5.34963 0
-839.314 -5.25336 0
-837.705 -5.15602 0
-836.094 -5.06225 0
-834.481 -4.96745 0
-832.867 -4.87661 0
-831.253 -4.78961 0
-829.636 -4.70179 0
-828.021 -4.61792 0
-826.404 -4.53872 0
-824.786 -4.4615 0
-823.169 -4.38553 0
-821.551 -4.31145 0
-819.931 -4.24156 0
-818.309 -4.17116 0
-816.689 -4.10781 0
-815.066 -4.04443 0
-813.445 -3.98701 0
-811.823 -3.9316 0
-810.201 -3.88013 0
-808.578 -3.83167 0
-806.956 -3.78739 0
-805.332 -3.74595 0
-803.707 -3.70902 0
-802.085 -3.67028 0
-800.462 -3.63885 0
-798.839 -3.60847 0
-797.218 -3.58052 0
-795.596 -3.55479 0
-793.973 -3.53375 0
-792.35 -3.51817 0
-790.73 -3.50384 0
-789.11 -3.48954 0
-787.485 -3.48264 0
-785.864 -3.47709 0
-784.243 -3.47087 0
-782.623 -3.46884 0
-781.002 -3.47095 0
-779.384 -3.47548 0
-777.761 -3.48017 0
-776.141 -3.48762 0
-774.526 -3.5002 0
-772.908 -3.51104 0
-771.288 -3.52338 0
-769.67 -3.53956 0
-768.056 -3.55466 0
-766.439 -3.57696 0
-764.827 -3.59646 0
-763.211 -3.61985 0
-761.596 -3.64398 0
-759.981 -3.67009 0
-758.367 -3.69669 0
-756.755 -3.72565 0
-755.141 -3.75536 0
-753.53 -3.78668 0
-751.92 -3.81673 0
-750.308 -3.84841 0
-748.696 -3.88261 0
-747.087 -3.91602 0
-745.477 -3.95039 0
-743.867 -3.98636 0
-742.259 -4.02105 0
-740.653 -4.05641 0
-739.046 -4.09355 0
-737.44 -4.12419 0
-735.833 -4.16393 0
-734.227 -4.19805 0
-732.622 -4.23659 0
-731.017 -4.27142 0
-729.412 -4.30484 0
-727.811 -4.34038 0
-726.207 -4.37797 0
-724.603 -4.41489 0
-722.999 -4.44877 0
-721.396 -4.48569 0
-719.795 -4.5174 0
-718.195 -4.55307 0
-716.593 -4.58467 0
-714.991 -4.61573 0
-713.391 -4.64731 0
-711.791 -4.67615 0
-710.19 -4.70679 0
-708.589 -4.73415 0
-706.988 -4.76149 0
-705.388 -4.79039 0
-703.789 -4.817 0
-702.188 -4.84547 0
-700.591 -4.86942 0
-698.989 -4.89247 0
-697.392 -4.91777 0
-695.794 -4.93529 0
-694.196 -4.96033 0
-692.595 -4.97876 0
-690.998 -4.99593 0
-689.398 -5.01641 0
-687.798 -5.0352 0
-686.197 -5.05212 0
-684.6 -5.0687 0
-683.002 -5.08219 0
-681.401 -5.09289 0
-679.803 -5.10574 0
-678.203 -5.11683 0
-676.607 -5.12862 0
-675.011 -5.14072 0
-673.413 -5.15054 0
-671.814 -5.15537 0
-670.215 -5.16751 0
-668.618 -5.16799 0
-667.016 -5.17513 0
-665.419 -5.17798 0
-663.821 -5.18026 0
-662.223 -5.18715 0
-660.621 -5.18894 0
-659.021 -5.18767 0
-657.424 -5.18709 0
-655.822 -5.18714 0
-654.222 -5.18444 0
-652.622 -5.1819 0
-651.024 -5.17714 0
-649.425 -5.17579 0
-647.827 -5.17328 0
-646.225 -5.17225 0
-644.625 -5.16472 0
-643.022 -5.16228 0
-641.422 -5.15449 0
-639.823 -5.14713 0
-638.223 -5.14112 0
-636.623 -5.13527 0
-635.021 -5.12393 0
-633.419 -5.11907 0
-631.817 -5.11359 0
-630.216 -5.10627 0
-628.613 -5.09481 0
-627.009 -5.08396 0
-625.408 -5.07218 0
-623.808 -5.06099 0
-622.205 -5.05191 0
-620.598 -5.03887 0
-618.997 -5.02782 0
-617.397 -5.02051 0
-615.793 -5.01108 0
-614.188 -5.00122 0
-612.587 -4.98665 0
-610.981 -4.97925 0
-609.377 -4.96797 0
-607.771 -4.95299 0
-606.169 -4.94768 0
-604.564 -4.9366 0
-602.961 -4.9292 0
-601.359 -4.91678 0
-599.755 -4.90431 0
-598.152 -4.89367 0
-596.544 -4.88245 0
-594.939 -4.86884 0
-593.335 -4.85826 0
-591.73 -4.85568 0
-590.124 -4.84322 0
-588.517 -4.83389 0
-586.911 -4.82494 0
-585.305 -4.81533 0
-583.701 -4.80853 0
-582.097 -4.79422 0
-580.49 -4.78628 0
-578.886 -4.77641 0
-577.281 -4.7706 0
-575.674 -4.7661 0
-574.066 -4.75506 0
-572.464 -4.74909 0
-570.857 -4.74028 0
-569.252 -4.73293 0
-567.649 -4.72606 0
-566.044 -4.72297 0
-564.439 -4.71817 0
-562.832 -4.71104 0
-561.229 -4.70526 0
-559.624 -4.70039 0
-558.016 -4.69477 0
-556.411 -4.68883 0
-554.802 -4.68578 0
-553.198 -4.67851 0
-551.594 -4.68094 0
-549.988 -4.67647 0
-548.38 -4.67487 0
-546.774 -4.6702 0
-545.168 -4.66467 0
-543.564 -4.66307 0
-541.958 -4.66275 0
-540.356 -4.66282 0
-538.75 -4.66158 0
-537.142 -4.65609 0
-535.533 -4.65679 0
-533.923 -4.65369 0
-532.319 -4.65518 0
-530.716 -4.65439 0
-529.11 -4.65383 0
-527.506 -4.65306 0
-525.897 -4.65515 0
-524.292 -4.65571 0
-522.686 -4.65948 0
-521.082 -4.65768 0
-519.479 -4.65977 0
-517.876 -4.66124 0
-516.271 -4.66381 0
-514.663 -4.66695 0
-513.057 -4.66486 0
-511.453 -4.66462 0
-509.845 -4.66831 0
-508.24 -4.67143 0
-506.638 -4.67541 0
-505.031 -4.67759 0
-503.426 -4.68154 0
-501.823 -4.68371 0
-500.216 -4.68379 0
-498.608 -4.68297 0
-497.009 -4.68634 0
-495.404 -4.68706 0
-493.796 -4.69379 0
-492.193 -4.70003 0
-490.59 -4.69965 0
-488.985 -4.70538 0
-487.381 -4.71184 0
-485.778 -4.71414 0
-484.171 -4.71351 0
-482.567 -4.72361 0
-480.965 -4.73137 0
-479.361 -4.73647 0
-477.759 -4.73592 0
-476.156 -4.74051 0
-474.55 -4.74058 0
-472.947 -4.74466 0
-471.345 -4.74837 0
-469.741 -4.74701 0
-468.14 -4.7547 0
-466.534 -4.75495 0
-464.926 -4.76214 0
-463.326 -4.76501 0
-461.725 -4.77082 0
-460.117 -4.77649 0
-458.514 -4.77936 0
-456.908 -4.77875 0
-455.309 -4.78081 0
-453.703 -4.7864 0
-452.098 -4.78398 0
-450.498 -4.7911 0
-448.896 -4.79572 0
-447.291 -4.7965 0
-445.692 -4.8003 0
-444.088 -4.80267 0
-442.482 -4.80471 0
-440.873 -4.8073 0
-439.274 -4.81151 0
-437.672 -4.80935 0
-436.072 -4.81157 0
-434.47 -4.81406 0
-432.863 -4.81873 0
-431.258 -4.81418 0
-429.657 -4.82099 0
-428.048 -4.82046 0
-426.45 -4.81947 0
-424.846 -4.82134 0
-423.239 -4.82221 0
-421.633 -4.82064 0
-420.029 -4.82041 0
-418.429 -4.82322 0
-416.829 -4.82876 0
-415.228 -4.82866 0
-413.624 -4.82976 0
-412.017 -4.82772 0
-410.412 -4.82899 0
-408.811 -4.83124 0
-407.212 -4.83339 0
-405.61 -4.83471 0
-404.005 -4.83575 0
-402.4 -4.83494 0
-400.795 -4.8323 0
-399.196 -4.84087 0
-397.593 -4.83456 0
-395.984 -4.83538 0
-394.385 -4.83231 0
-392.776 -4.83391 0
-391.175 -4.83139 0
-389.57 -4.83104 0
-387.966 -4.83385 0
-386.363 -4.8361 0
-384.76 -4.82858 0
-383.157 -4.82839 0
-381.551 -4.82844 0
-379.953 -4.82289 0
-378.349 -4.82191 0
-376.749 -4.8229 0
-375.149 -4.82109 0
-373.538 -4.82467 0
-371.939 -4.82049 0
-370.334 -4.82147 0
-368.732 -4.82091 0
-367.13 -4.8195 0
-365.524 -4.82149 0
-363.922 -4.81542 0
-362.318 -4.81189 0
-360.712 -4.81408 0
-359.109 -4.80952 0
-357.506 -4.8118 0
-355.904 -4.80996 0
-354.296 -4.80305 0
-352.692 -4.80436 0
-351.091 -4.80908 0
-349.488 -4.80607 0
-347.883 -4.80392 0
-346.277 -4.80568 0
-344.677 -4.79845 0
-343.074 -4.80141 0
-341.469 -4.79726 0
-339.868 -4.79159 0
-338.269 -4.79006 0
-336.657 -4.78607 0
-335.053 -4.78518 0
-333.45 -4.78648 0
-331.845 -4.78776 0
-330.245 -4.78724 0
-328.639 -4.78333 0
-327.036 -4.77989 0
-325.434 -4.78198 0
-323.834 -4.77748 0
-322.23 -4.77498 0
-320.625 -4.78012 0
-319.023 -4.77465 0
-317.418 -4.77464 0
-315.811 -4.77496 0
-314.211 -4.77306 0
-312.603 -4.7696 0
-311.002 -4.76879 0
-309.394 -4.76908 0
-307.789 -4.77039 0
-306.186 -4.7672 0
-304.584 -4.76577 0
-302.981 -4.76278 0
-301.374 -4.76216 0
-299.771 -4.757 0
-298.165 -4.75725 0
-296.562 -4.75917 0
-294.963 -4.7598 0
-293.359 -4.75685 0
-291.751 -4.75213 0
-290.146 -4.75783 0
-288.542 -4.75602 0
-286.943 -4.75492 0
-285.338 -4.75559 0
-283.735 -4.75453 0
-282.132 -4.75161 0
-280.53 -4.75358 0
-278.927 -4.74915 0
-277.321 -4.74789 0
-275.717 -4.75055 0
-274.114 -4.74893 0
-272.51 -4.7479 0
-270.902 -4.74339 0
-269.299 -4.7483 0
-267.699 -4.74651 0
-266.096 -4.74631 0
-264.495 -4.7434 0
-262.894 -4.7425 0
-261.288 -4.74049 0
-259.685 -4.73943 0
-258.078 -4.74313 0
-256.479 -4.74002 0
-254.871 -4.7386 0
-253.268 -4.74222 0
-251.664 -4.7456 0
-250.061 -4.74586 0
-248.458 -4.74904 0
-246.851 -4.74645 0
-245.249 -4.7444 0
-243.649 -4.74001 0
-242.047 -4.74495 0
-240.446 -4.74411 0
-238.845 -4.7431 0
-237.238 -4.74666 0
-235.635 -4.74599 0
-234.035 -4.74812 0
-232.429 -4.74633 0
-230.826 -4.74879 0
-229.226 -4.75242 0
-227.624 -4.74538 0
-226.022 -4.74696 0
-224.415 -4.7471 0
-222.814 -4.74294 0
-221.214 -4.73492 0
-219.606 -4.7374 0
-218.002 -4.73623 0
-216.396 -4.73949 0
-214.787 -4.73955 0
-213.188 -4.74382 0
-211.587 -4.74823 0
-209.986 -4.74743 0
-208.382 -4.74727 0
-206.781 -4.74905 0
-205.175 -4.74999 0
-203.576 -4.74084 0
-201.969 -4.74298 0
-200.362 -4.7438 0
-198.761 -4.7476 0
-197.159 -4.74658 0
-195.557 -4.75344 0
-193.952 -4.74838 0
-192.35 -4.75371 0
-190.749 -4.75237 0
-189.145 -4.75273 0
-187.54 -4.757 0
-185.936 -4.75283 0
-184.337 -4.75534 0
-182.727 -4.75646 0
-181.127 -4.75444 0
-179.52 -4.75356 0
-177.917 -4.75555 0
-176.315 -4.75633 0
-174.71 -4.75648 0
-173.107 -4.75896 0
-171.504 -4.76184 0
-169.902 -4.75304 0
-168.298 -4.75353 0
-166.702 -4.75201 0
-165.096 -4.754 0
-163.494 -4.75705 0
-161.889 -4.75778 0
-160.288 -4.754 0
-158.688 -4.75469 0
-157.087 -4.75787 0
-155.485 -4.75844 0
-153.88 -4.75328 0
-152.275 -4.75351 0
-150.671 -4.75361 0
-149.07 -4.75283 0
-147.465 -4.7538 0
-145.862 -4.75564 0
-144.259 -4.75025 0
-142.655 -4.75315 0
-141.056 -4.75248 0
-139.452 -4.7526 0
-137.845 -4.75216 0
-136.239 -4.75429 0
-134.636 -4.75307 0
-133.033 -4.75104 0
-131.434 -4.75141 0
-129.833 -4.74955 0
-128.225 -4.75419 0
-126.623 -4.75076 0
-125.018 -4.74989 0
-123.42 -4.75277 0
-121.818 -4.75445 0
-120.216 -4.76126 0
-118.612 -4.75466 0
-117.009 -4.75235 0
-115.404 -4.75629 0
-113.803 -4.75734 0
-112.197 -4.75459 0
-110.599 -4.75645 0
-108.993 -4.7533 0
-107.392 -4.7522 0
-105.789 -4.75526 0
-104.188 -4.75747 0
-102.58 -4.75092 0
-100.975 -4.75375 0
-99.3762 -4.7553 0
-97.7744 -4.75899 0
-96.1685 -4.75298 0
-94.5677 -4.75085 0
-92.9639 -4.75162 0
-91.3612 -4.74952 0
-89.755 -4.75252 0
-88.1534 -4.75176 0
-86.5477 -4.75272 0
-84.9463 -4.75188 0
-83.3456 -4.75374 0
-81.7417 -4.75344 0
-80.1384 -4.75543 0
-78.5365 -4.75052 0
-76.9336 -4.75488 0
-75.3322 -4.75158 0
-73.7318 -4.75374 0
-72.1259 -4.75337 0
-70.5226 -4.75292 0
-68.9196 -4.75324 0
-67.3204 -4.75411 0
-65.7139 -4.75126 0
-64.1095 -4.75712 0
-62.5085 -4.75496 0
-60.908 -4.75427 0
-59.303 -4.75608 0
-57.6999 -4.75448 0
-56.0955 -4.75359 0
-54.4965 -4.7552 0
-52.8928 -4.75483 0
-51.2941 -4.75459 0
-49.6893 -4.75301 0
-48.0855 -4.75503 0
-46.4828 -4.75854 0
-44.881 -4.75574 0
-43.2819 -4.75441 0
-41.6738 -4.75914 0
-40.0684 -4.75201 0
-38.467 -4.75224 0
-36.8651 -4.75121 0
-35.2622 -4.74922 0
-33.6588 -4.75552 0
-32.0573 -4.75031 0
-30.4604 -4.75682 0
-28.8539 -4.75342 0
-27.2488 -4.75536 0
-25.6452 -4.75165 0
-24.0429 -4.75119 0
-22.4368 -4.75096 0
-20.8323 -4.74992 0
-19.2304 -4.74723 0
-17.6218 -4.74965 0
-16.0214 -4.748 0
-14.4198 -4.75267 0
-12.818 -4.75423 0
-11.2173 -4.75134 0
-9.61771 -4.75086 0
-8.01737 -4.75269 0
-6.4159 -4.74877 0
-4.81296 -4.75042 0
-3.20676 -4.74547 0
-1.60745 -4.75058 0
0 -4.75184 0
-1072.94 96.142 0
-1073.27 86.4065 0
-1073.59 76.8239 0
-1073.89 67.4623 0
-1074.16 58.3533 0
-1074.38 49.559 0
-1074.56 41.1718 0
-1074.71 33.254 0
-1074.83 25.8497 0
-1074.91 18.9846 0
-1074.94 12.6717 0
-1074.91 6.93728 0
-1074.82 1.78646 0
-1074.74 -2.83107 0
-1074.74 -7.10457 0
-1074.7 -11.1169 0
-1074.63 -14.82 0
-1074.52 -18.1702 0
-1074.36 -21.1299 0
-1074.19 -23.6888 0
-1074 -25.8637 0
-1073.78 -27.6688 0
-1073.53 -29.1242 0
-1073.25 -30.2518 0
-1072.92 -31.0864 0
-1072.55 -31.648 0
-1072.12 -31.9683 0
-1071.65 -32.0727 0
-1071.11 -31.9822 0
-1070.52 -31.718 0
-1069.87 -31.2927 0
-1069.17 -30.733 0
-1068.41 -30.0506 0
-1067.59 -29.2616 0
-1066.72 -28.3748 0
-1065.8 -27.4079 0
-1064.82 -26.3711 0
-1063.8 -25.2789 0
-1062.72 -24.1369 0
-1061.6 -22.9575 0
-1060.43 -21.749 0
-1059.22 -20.5141 0
-1057.97 -19.2675 0
-1056.68 -18.0141 0
-1055.34 -16.759 0
-1053.98 -15.5122 0
-1052.58 -14.2707 0
-1051.15 -13.0457 0
-1049.69 -11.8352 0
-1048.2 -10.6513 0
-1046.68 -9.49034 0
-1045.13 -8.35798 0
-1043.57 -7.26089 0
-1041.98 -6.19422 0
-1040.37 -5.163 0
-1038.74 -4.17224 0
-1037.09 -3.21988 0
-1035.43 -2.30623 0
-1033.76 -1.43528 0
-1032.07 -0.606662 0
-1030.36 0.177596 0
-1028.65 0.920419 0
-1026.92 1.61824 0
-1025.19 2.27182 0
-1023.45 2.88355 0
-1021.7 3.45011 0
-1019.95 3.97213 0
-1018.19 4.45182 0
-1016.42 4.88808 0
-1014.66 5.28371 0
-1012.88 5.63747 0
-1011.11 5.95033 0
-1009.34 6.22235 0
-1007.56 6.4557 0
-1005.79 6.65439 0
-1004.02 6.81263 0
-1002.24 6.93618 0
-1000.47 7.02775 0
-998.702 7.08562 0
-996.937 7.11148 0
-995.173 7.10614 0
-993.415 7.0711 0
-991.66 7.0087 0
-989.91 6.91835 0
-988.164 6.80431 0
-986.422 6.66581 0
-984.685 6.50433 0
-982.953 6.32254 0
-981.227 6.11983 0
-979.509 5.89865 0
-977.795 5.66068 0
-976.087 5.40741 0
-974.386 5.1388 0
-972.691 4.85757 0
-971 4.56394 0
-969.315 4.26043 0
-967.639 3.94645 0
-965.968 3.62552 0
-964.301 3.29837 0
-962.643 2.9652 0
-960.989 2.629 0
-959.34 2.28751 0
-957.699 1.94467 0
-956.06 1.59906 0
-954.43 1.25439 0
-952.804 0.910348 0
-951.184 0.567233 0
-949.569 0.226332 0
-947.96 -0.111188 0
-946.354 -0.44368 0
-944.752 -0.770427 0
-943.155 -1.09064 0
-941.563 -1.40611 0
-939.974 -1.7146 0
-938.388 -2.01515 0
-936.805 -2.3096 0
-935.227 -2.59314 0
-933.651 -2.86899 0
-932.076 -3.13479 0
-930.506 -3.39082 0
-928.938 -3.63738 0
-927.372 -3.87284 0
-925.807 -4.09891 0
-924.245 -4.31352 0
-922.683 -4.51778 0
-921.125 -4.71081 0
-919.567 -4.89229 0
-918.011 -5.06334 0
-916.455 -5.22084 0
-914.901 -5.37008 0
-913.347 -5.50462 0
-911.792 -5.63065 0
-910.238 -5.74472 0
-908.686 -5.84768 0
-907.131 -5.94175 0
-905.576 -6.02153 0
-904.02 -6.09232 0
-902.465 -6.15495 0
-900.91 -6.20499 0
-899.353 -6.24739 0
-897.793 -6.28016 0
-896.236 -6.2995 0
-894.677 -6.31346 0
-893.116 -6.31739 0
-891.554 -6.31377 0
-889.991 -6.30104 0
-888.428 -6.28212 0
-886.864 -6.2559 0
-885.297 -6.2203 0
-883.729 -6.17981 0
-882.162 -6.13221 0
-880.59 -6.07948 0
-879.018 -6.01987 0
-877.444 -5.95848 0
-875.87 -5.89011 0
-874.293 -5.81737 0
-872.713 -5.74078 0
-871.134 -5.65846 0
-869.552 -5.57278 0
-867.967 -5.4836 0
-866.383 -5.3916 0
-864.797 -5.29755 0
-863.209 -5.20101 0
-861.619 -5.1019 0
-860.028 -5.00178 0
-858.435 -4.89855 0
-856.84 -4.79496 0
-855.245 -4.69131 0
-853.648 -4.58648 0
-852.049 -4.48025 0
-850.45 -4.37549 0
-848.85 -4.27046 0
-847.248 -4.16739 0
-845.644 -4.06328 0
-844.04 -3.96165 0
-842.434 -3.86057 0
-840.826 -3.75835 0
-839.219 -3.65975 0
-837.61 -3.56241 0
-836.001 -3.4686 0
-834.39 -3.37318 0
-832.779 -3.28194 0
-831.166 -3.19327 0
-829.553 -3.10512 0
-827.94 -3.02093 0
-826.325 -2.93909 0
-824.711 -2.86087 0
-823.094 -2.78379 0
-821.478 -2.7099 0
-819.862 -2.63958 0
-818.244 -2.56973 0
-816.625 -2.50457 0
-815.009 -2.44191 0
-813.39 -2.3833 0
-811.772 -2.32883 0
-810.151 -2.27822 0
-808.531 -2.22847 0
-806.911 -2.18297 0
-805.292 -2.1401 0
-803.671 -2.10328 0
-802.051 -2.06692 0
-800.431 -2.03495 0
-798.812 -2.004 0
-797.193 -1.97648 0
-795.573 -1.95027 0
-793.955 -1.93072 0
-792.335 -1.91499 0
-790.717 -1.90018 0
-789.099 -1.88779 0
-787.479 -1.87787 0
-785.859 -1.87294 0
-784.24 -1.86848 0
-782.624 -1.86856 0
-781.005 -1.87014 0
-779.387 -1.87329 0
-777.77 -1.87815 0
-776.153 -1.88781 0
-774.537 -1.8984 0
-772.92 -1.90971 0
-771.304 -1.92317 0
-769.688 -1.94132 0
-768.075 -1.95892 0
-766.461 -1.97815 0
-764.847 -2.00189 0
-763.233 -2.0216 0
-761.622 -2.04627 0
-760.008 -2.07402 0
-758.394 -2.10122 0
-756.782 -2.12985 0
-755.171 -2.1607 0
-753.561 -2.19281 0
-751.952 -2.22384 0
-750.34 -2.25488 0
-748.731 -2.2888 0
-747.121 -2.3237 0
-745.514 -2.35889 0
-743.904 -2.39395 0
-742.295 -2.42909 0
-740.688 -2.4665 0
-739.081 -2.50167 0
-737.474 -2.53628 0
-735.869 -2.57304 0
-734.262 -2.61033 0
-732.659 -2.64641 0
-731.052 -2.6841 0
-729.449 -2.71587 0
-727.844 -2.75631 0
-726.242 -2.7924 0
-724.638 -2.82963 0
-723.035 -2.86323 0
-721.43 -2.89894 0
-719.828 -2.93352 0
-718.226 -2.96806 0
-716.625 -2.9992 0
-715.021 -3.03153 0
-713.42 -3.0655 0
-711.818 -3.09114 0
-710.218 -3.12196 0
-708.615 -3.1503 0
-707.017 -3.17988 0
-705.415 -3.20587 0
-703.815 -3.23405 0
-702.214 -3.26099 0
-700.614 -3.28406 0
-699.016 -3.31151 0
-697.414 -3.33309 0
-695.815 -3.35592 0
-694.214 -3.37787 0
-692.615 -3.39685 0
-691.017 -3.41581 0
-689.415 -3.43411 0
-687.816 -3.45335 0
-686.216 -3.46982 0
-684.615 -3.48551 0
-683.016 -3.5008 0
-681.417 -3.51097 0
-679.817 -3.5236 0
-678.216 -3.53611 0
-676.617 -3.54876 0
-675.019 -3.55806 0
-673.419 -3.5685 0
-671.823 -3.57464 0
-670.223 -3.58216 0
-668.624 -3.58751 0
-667.024 -3.59124 0
-665.424 -3.59856 0
-663.824 -3.60017 0
-662.224 -3.60005 0
-660.623 -3.60309 0
-659.024 -3.60382 0
-657.423 -3.60368 0
-655.821 -3.60291 0
-654.22 -3.60088 0
-652.62 -3.59807 0
-651.02 -3.59553 0
-649.419 -3.59357 0
-647.818 -3.59039 0
-646.218 -3.58651 0
-644.619 -3.58105 0
-643.018 -3.57791 0
-641.417 -3.56906 0
-639.817 -3.56557 0
-638.216 -3.55753 0
-636.614 -3.54641 0
-635.012 -3.5382 0
-633.41 -3.53378 0
-631.809 -3.52695 0
-630.207 -3.52034 0
-628.604 -3.50763 0
-627.002 -3.49768 0
-625.4 -3.48731 0
-623.797 -3.47508 0
-622.195 -3.46632 0
-620.591 -3.45209 0
-618.987 -3.44132 0
-617.387 -3.43431 0
-615.784 -3.42313 0
-614.178 -3.4133 0
-612.574 -3.40124 0
-610.971 -3.39142 0
-609.362 -3.38007 0
-607.763 -3.36806 0
-606.159 -3.35961 0
-604.557 -3.34981 0
-602.953 -3.34048 0
-601.347 -3.32761 0
-599.743 -3.3161 0
-598.137 -3.30377 0
-596.535 -3.29442 0
-594.927 -3.28373 0
-593.324 -3.27354 0
-591.721 -3.2645 0
-590.112 -3.25699 0
-588.505 -3.24389 0
-586.902 -3.23736 0
-585.297 -3.22772 0
-583.692 -3.21855 0
-582.087 -3.20722 0
-580.483 -3.19778 0
-578.879 -3.18674 0
-577.273 -3.181 0
-575.668 -3.17515 0
-574.063 -3.16824 0
-572.455 -3.16053 0
-570.85 -3.15131 0
-569.247 -3.14476 0
-567.642 -3.13855 0
-566.037 -3.13369 0
-564.43 -3.12832 0
-562.824 -3.12341 0
-561.221 -3.11819 0
-559.617 -3.11109 0
-558.011 -3.10851 0
-556.405 -3.10169 0
-554.799 -3.09531 0
-553.193 -3.09175 0
-551.591 -3.09306 0
-549.984 -3.08865 0
-548.378 -3.08423 0
-546.771 -3.08205 0
-545.166 -3.07655 0
-543.562 -3.07471 0
-541.956 -3.07563 0
-540.35 -3.07373 0
-538.745 -3.07312 0
-537.139 -3.06674 0
-535.535 -3.06645 0
-533.926 -3.06701 0
-532.32 -3.06869 0
-530.714 -3.06516 0
-529.106 -3.06543 0
-527.502 -3.06497 0
-525.897 -3.06701 0
-524.294 -3.06607 0
-522.69 -3.07141 0
-521.084 -3.06987 0
-519.482 -3.07297 0
-517.877 -3.0747 0
-516.271 -3.07532 0
-514.664 -3.07561 0
-513.058 -3.07485 0
-511.453 -3.07612 0
-509.847 -3.08167 0
-508.243 -3.0856 0
-506.64 -3.08554 0
-505.034 -3.08973 0
-503.429 -3.09265 0
-501.823 -3.09414 0
-500.217 -3.09394 0
-498.613 -3.09621 0
-497.009 -3.10275 0
-495.406 -3.10212 0
-493.805 -3.10704 0
-492.198 -3.1126 0
-490.594 -3.11589 0
-488.993 -3.11802 0
-487.389 -3.12337 0
-485.783 -3.12772 0
-484.177 -3.12939 0
-482.575 -3.14006 0
-480.97 -3.14407 0
-479.362 -3.14882 0
-477.76 -3.15097 0
-476.157 -3.15108 0
-474.555 -3.15527 0
-472.951 -3.15834 0
-471.345 -3.16462 0
-469.744 -3.1657 0
-468.141 -3.16824 0
-466.538 -3.16975 0
-464.934 -3.17375 0
-463.33 -3.17941 0
-461.726 -3.18005 0
-460.121 -3.18482 0
-458.514 -3.19102 0
-456.913 -3.19058 0
-455.312 -3.1945 0
-453.708 -3.19998 0
-452.105 -3.20034 0
-450.502 -3.20676 0
-448.898 -3.20787 0
-447.295 -3.21274 0
-445.692 -3.21332 0
-444.093 -3.21495 0
-442.484 -3.21945 0
-440.879 -3.2197 0
-439.276 -3.22272 0
-437.674 -3.22774 0
-436.07 -3.22648 0
-434.467 -3.22947 0
-432.866 -3.22939 0
-431.26 -3.23321 0
-429.658 -3.23027 0
-428.054 -3.23071 0
-426.45 -3.23602 0
-424.845 -3.23178 0
-423.243 -3.23512 0
-421.635 -3.23408 0
-420.035 -3.23667 0
-418.432 -3.23994 0
-416.829 -3.24343 0
-415.226 -3.24502 0
-413.62 -3.24148 0
-412.019 -3.24171 0
-410.415 -3.24154 0
-408.814 -3.2488 0
-407.21 -3.24738 0
-405.61 -3.24877 0
-404.007 -3.24966 0
-402.403 -3.24675 0
-400.794 -3.24865 0
-399.19 -3.2514 0
-397.591 -3.24818 0
-395.988 -3.24802 0
-394.385 -3.24478 0
-392.778 -3.24159 0
-391.171 -3.24482 0
-389.567 -3.24506 0
-387.967 -3.24545 0
-386.361 -3.24675 0
-384.757 -3.24618 0
-383.156 -3.24253 0
-381.551 -3.24064 0
-379.948 -3.23927 0
-378.348 -3.2378 0
-376.746 -3.23923 0
-375.146 -3.23281 0
-373.541 -3.23306 0
-371.934 -3.23656 0
-370.335 -3.23313 0
-368.729 -3.23441 0
-367.124 -3.23193 0
-365.52 -3.23347 0
-363.92 -3.22798 0
-362.318 -3.2276 0
-360.711 -3.22518 0
-359.107 -3.22255 0
-357.503 -3.22284 0
-355.894 -3.22027 0
-354.296 -3.21833 0
-352.694 -3.2216 0
-351.089 -3.22048 0
-349.485 -3.21924 0
-347.881 -3.21769 0
-346.279 -3.21712 0
-344.675 -3.21607 0
-343.07 -3.21011 0
-341.466 -3.21036 0
-339.867 -3.20518 0
-338.267 -3.20271 0
-336.664 -3.20024 0
-335.059 -3.2009 0
-333.456 -3.19986 0
-331.852 -3.19968 0
-330.245 -3.19843 0
-328.638 -3.19643 0
-327.036 -3.19455 0
-325.435 -3.19198 0
-323.83 -3.19028 0
-322.229 -3.18942 0
-320.624 -3.19063 0
-319.019 -3.19069 0
-317.414 -3.18617 0
-315.81 -3.1855 0
-314.205 -3.18274 0
-312.601 -3.18384 0
-310.998 -3.18272 0
-309.394 -3.18149 0
-307.789 -3.18175 0
-306.182 -3.17934 0
-304.581 -3.17688 0
-302.98 -3.17606 0
-301.375 -3.17402 0
-299.769 -3.17105 0
-298.168 -3.17464 0
-296.564 -3.17323 0
-294.96 -3.1735 0
-293.356 -3.16815 0
-291.754 -3.17098 0
-290.149 -3.16891 0
-288.543 -3.16976 0
-286.937 -3.16931 0
-285.339 -3.17112 0
-283.737 -3.16851 0
-282.134 -3.16898 0
-280.53 -3.16724 0
-278.928 -3.1614 0
-277.32 -3.16188 0
-275.717 -3.16448 0
-274.114 -3.16462 0
-272.507 -3.16142 0
-270.905 -3.15871 0
-269.303 -3.16174 0
-267.701 -3.15914 0
-266.1 -3.15812 0
-264.497 -3.15752 0
-262.892 -3.15584 0
-261.288 -3.15333 0
-259.686 -3.15425 0
-258.081 -3.15317 0
-256.471 -3.15446 0
-254.87 -3.15578 0
-253.269 -3.1583 0
-251.663 -3.15829 0
-250.063 -3.15839 0
-248.46 -3.16086 0
-246.854 -3.16176 0
-245.252 -3.1582 0
-243.652 -3.15644 0
-242.051 -3.16119 0
-240.445 -3.15928 0
-238.845 -3.15855 0
-237.242 -3.1564 0
-235.637 -3.15979 0
-234.035 -3.15939 0
-232.429 -3.16144 0
-230.828 -3.16153 0
-229.226 -3.16391 0
-227.623 -3.16121 0
-226.018 -3.1585 0
-224.414 -3.15911 0
-222.813 -3.15806 0
-221.207 -3.15248 0
-219.604 -3.15044 0
-217.998 -3.15057 0
-216.393 -3.15197 0
-214.795 -3.15646 0
-213.195 -3.16126 0
-211.59 -3.15914 0
-209.991 -3.16512 0
-208.383 -3.16185 0
-206.781 -3.16452 0
-205.179 -3.16298 0
-203.573 -3.15809 0
-201.97 -3.15582 0
-200.364 -3.16045 0
-198.766 -3.16144 0
-197.163 -3.16254 0
-195.561 -3.16419 0
-193.955 -3.16624 0
-192.353 -3.16647 0
-190.748 -3.16865 0
-189.147 -3.1674 0
-187.541 -3.16921 0
-185.94 -3.16924 0
-184.336 -3.16781 0
-182.734 -3.17003 0
-181.128 -3.16876 0
-179.522 -3.16726 0
-177.918 -3.16877 0
-176.314 -3.16968 0
-174.714 -3.17315 0
-173.108 -3.17128 0
-171.504 -3.1724 0
-169.903 -3.17201 0
-168.302 -3.16665 0
-166.699 -3.1669 0
-165.096 -3.16798 0
-163.494 -3.17065 0
-161.889 -3.17217 0
-160.288 -3.17086 0
-158.685 -3.1733 0
-157.085 -3.17342 0
-155.484 -3.17119 0
-153.88 -3.16848 0
-152.278 -3.16764 0
-150.676 -3.16976 0
-149.071 -3.16716 0
-147.468 -3.16584 0
-145.862 -3.16652 0
-144.258 -3.16568 0
-142.656 -3.16816 0
-141.054 -3.16909 0
-139.449 -3.16735 0
-137.844 -3.16572 0
-136.24 -3.1653 0
-134.639 -3.16711 0
-133.038 -3.16525 0
-131.435 -3.16624 0
-129.831 -3.16562 0
-128.227 -3.16686 0
-126.623 -3.16571 0
-125.02 -3.16444 0
-123.421 -3.16611 0
-121.818 -3.16803 0
-120.216 -3.17202 0
-118.612 -3.17038 0
-117.008 -3.16993 0
-115.404 -3.16782 0
-113.801 -3.16959 0
-112.2 -3.16965 0
-110.594 -3.16884 0
-108.994 -3.1686 0
-107.39 -3.1667 0
-105.788 -3.17003 0
-104.187 -3.16709 0
-102.583 -3.16704 0
-100.978 -3.16701 0
-99.3768 -3.16964 0
-97.7741 -3.17025 0
-96.1725 -3.16601 0
-94.5665 -3.16394 0
-92.9636 -3.16486 0
-91.36 -3.16447 0
-89.7568 -3.16726 0
-88.1544 -3.16589 0
-86.5502 -3.16506 0
-84.9479 -3.16577 0
-83.3452 -3.16545 0
-81.7441 -3.16672 0
-80.139 -3.16665 0
-78.5353 -3.16483 0
-76.936 -3.16822 0
-75.3339 -3.16695 0
-73.7317 -3.16915 0
-72.1286 -3.16773 0
-70.5247 -3.16892 0
-68.9229 -3.16767 0
-67.3199 -3.16893 0
-65.7175 -3.16601 0
-64.1143 -3.16704 0
-62.5119 -3.16915 0
-60.9076 -3.16789 0
-59.3044 -3.16668 0
-57.7012 -3.16943 0
-56.0979 -3.16819 0
-54.497 -3.16962 0
-52.8962 -3.1685 0
-51.2909 -3.171 0
-49.6876 -3.16902 0
-48.0879 -3.17179 0
-46.4855 -3.17131 0
-44.8823 -3.16645 0
-43.2783 -3.16978 0
-41.6722 -3.16762 0
-40.0695 -3.16582 0
-38.4696 -3.16609 0
-36.8652 -3.16703 0
-35.2628 -3.16679 0
-33.6618 -3.16873 0
-32.0592 -3.16865 0
-30.4564 -3.16814 0
-28.854 -3.16515 0
-27.2522 -3.16726 0
-25.6455 -3.1637 0
-24.0398 -3.16326 0
-22.438 -3.16507 0
-20.8349 -3.16321 0
-19.2278 -3.16179 0
-17.6244 -3.16049 0
-16.0238 -3.16264 0
-14.4229 -3.16805 0
-12.8185 -3.16643 0
-11.2195 -3.16541 0
-9.61698 -3.16835 0
-8.01486 -3.16731 0
-6.41205 -3.16294 0
-4.8076 -3.16421 0
-3.20419 -3.15907 0
-1.60376 -3.16181 0
0 -3.16388 0
-1082.88 96.9689 0
-1082.81 87.0015 0
-1082.9 77.4101 0
-1082.94 68.0576 0
-1082.91 58.9709 0
-1082.79 50.2018 0
-1082.58 41.8213 0
-1082.3 33.8976 0
-1081.95 26.4828 0
-1081.53 19.61 0
-1081.06 13.3013 0
-1080.53 7.56381 0
-1080 2.38024 0
-1079.52 -2.35675 0
-1079.09 -6.70807 0
-1078.71 -10.713 0
-1078.29 -14.3933 0
-1077.82 -17.7215 0
-1077.3 -20.6722 0
-1076.76 -23.233 0
-1076.19 -25.4076 0
-1075.62 -27.2093 0
-1075.02 -28.6548 0
-1074.42 -29.7706 0
-1073.8 -30.5795 0
-1073.17 -31.116 0
-1072.5 -31.4014 0
-1071.81 -31.4642 0
-1071.08 -31.3337 0
-1070.32 -31.022 0
-1069.52 -30.5531 0
-1068.68 -29.9446 0
-1067.8 -29.2156 0
-1066.88 -28.3763 0
-1065.91 -27.445 0
-1064.91 -26.428 0
-1063.86 -25.3475 0
-1062.78 -24.2106 0
-1061.66 -23.0262 0
-1060.5 -21.8026 0
-1059.3 -20.5512 0
-1058.07 -19.2805 0
-1056.8 -17.9969 0
-1055.5 -16.7052 0
-1054.17 -15.4191 0
-1052.8 -14.1384 0
-1051.41 -12.867 0
-1050 -11.6109 0
-1048.55 -10.3757 0
-1047.08 -9.16329 0
-1045.59 -7.97843 0
-1044.07 -6.82434 0
-1042.54 -5.70409 0
-1040.98 -4.61991 0
-1039.4 -3.56992 0
-1037.81 -2.56071 0
-1036.2 -1.59268 0
-1034.58 -0.66561 0
-1032.94 0.217184 0
-1031.29 1.0586 0
-1029.63 1.85559 0
-1027.96 2.60805 0
-1026.27 3.31508 0
-1024.58 3.97587 0
-1022.88 4.59385 0
-1021.17 5.16599 0
-1019.46 5.69298 0
-1017.74 6.17809 0
-1016.02 6.61838 0
-1014.29 7.01712 0
-1012.56 7.37257 0
-1010.83 7.68626 0
-1009.09 7.96101 0
-1007.35 8.19484 0
-1005.61 8.39247 0
-1003.87 8.55166 0
-1002.13 8.67363 0
-1000.39 8.76287 0
-998.659 8.81848 0
-996.923 8.84165 0
-995.189 8.83201 0
-993.458 8.79558 0
-991.729 8.7273 0
-990.004 8.63483 0
-988.282 8.51676 0
-986.563 8.3753 0
-984.847 8.20883 0
-983.135 8.02178 0
-981.43 7.81337 0
-979.726 7.58716 0
-978.029 7.34497 0
-976.336 7.0863 0
-974.648 6.81183 0
-972.964 6.52499 0
-971.285 6.22778 0
-969.611 5.91642 0
-967.942 5.59695 0
-966.278 5.27216 0
-964.618 4.93846 0
-962.963 4.60085 0
-961.315 4.25779 0
-959.669 3.91331 0
-958.028 3.56538 0
-956.392 3.21547 0
-954.761 2.86448 0
-953.134 2.51547 0