<?xml version="1.0"?>
<VTKFile type="StructuredGrid"  version="0.1" byte_order="LittleEndian" compressor="vtkZLibDataCompressor">
  <StructuredGrid WholeExtent="0 700 0 30 0 0">
    <Piece Extent="0 700 0 30 0 0">
      <PointData Vectors="Velocity">
        <DataArray type="Float32" Name="Velocity" NumberOfComponents="3" format="ascii">
-1061.88 94.2587 0
-1062.32 84.6408 0
-1062.81 75.1522 0
-1063.32 65.8789 0
-1063.86 56.8669 0
-1064.44 48.1861 0
-1065.07 39.9237 0
-1065.71 32.1283 0
-1066.36 24.8348 0
-1066.99 18.0653 0
-1067.59 11.8326 0
-1068.15 6.16687 0
-1068.65 1.0762 0
-1069.02 -3.47507 0
-1069.19 -7.68757 0
-1069.45 -11.6521 0
-1069.72 -15.2945 0
-1069.96 -18.578 0
-1070.19 -21.4765 0
-1070.4 -23.9852 0
-1070.58 -26.1193 0
-1070.71 -27.8947 0
-1070.78 -29.3339 0
-1070.8 -30.459 0
-1070.75 -31.2974 0
-1070.63 -31.8782 0
-1070.43 -32.2235 0
-1070.15 -32.3568 0
-1069.8 -32.2987 0
-1069.37 -32.0699 0
-1068.86 -31.6879 0
-1068.28 -31.1742 0
-1067.62 -30.5366 0
-1066.9 -29.7952 0
-1066.11 -28.9601 0
-1065.26 -28.0431 0
-1064.34 -27.058 0
-1063.36 -26.0139 0
-1062.32 -24.9227 0
-1061.23 -23.7939 0
-1060.08 -22.6314 0
-1058.88 -21.4521 0
-1057.63 -20.2542 0
-1056.34 -19.0513 0
-1055 -17.8442 0
-1053.63 -16.6403 0
-1052.21 -15.4463 0
-1050.76 -14.2657 0
-1049.28 -13.1049 0
-1047.76 -11.9632 0
-1046.21 -10.8454 0
-1044.64 -9.75708 0
-1043.04 -8.69965 0
-1041.42 -7.67384 0
-1039.77 -6.68369 0
-1038.1 -5.72989 0
-1036.42 -4.81226 0
-1034.72 -3.93449 0
-1033 -3.0991 0
-1031.27 -2.30541 0
-1029.52 -1.55118 0
-1027.77 -0.840026 0
-1026 -0.173742 0
-1024.23 0.450341 0
-1022.45 1.03262 0
-1020.66 1.57253 0
-1018.87 2.06878 0
-1017.07 2.52301 0
-1015.27 2.93708 0
-1013.46 3.31022 0
-1011.66 3.64078 0
-1009.85 3.93537 0
-1008.04 4.19091 0
-1006.24 4.40752 0
-1004.43 4.59231 0
-1002.63 4.73799 0
-1000.83 4.8493 0
-999.03 4.92539 0
-997.238 4.97183 0
-995.448 4.98481 0
-993.663 4.97108 0
-991.882 4.9295 0
-990.108 4.85851 0
-988.339 4.76402 0
-986.575 4.64714 0
-984.817 4.50426 0
-983.067 4.33965 0
-981.324 4.15823 0
-979.587 3.95413 0
-977.857 3.73249 0
-976.134 3.49724 0
-974.418 3.2462 0
-972.71 2.98122 0
-971.008 2.70112 0
-969.314 2.41419 0
-967.629 2.11526 0
-965.95 1.8089 0
-964.28 1.49448 0
-962.615 1.17438 0
-960.959 0.848907 0
-959.308 0.519259 0
-957.663 0.188214 0
-956.027 -0.145824 0
-954.395 -0.480882 0
-952.77 -0.814064 0
-951.152 -1.14742 0
-949.541 -1.47881 0
-947.934 -1.80554 0
-946.332 -2.12976 0
-944.737 -2.45094 0
-943.145 -2.76596 0
-941.558 -3.07511 0
-939.978 -3.37878 0
-938.401 -3.67232 0
-936.826 -3.96199 0
-935.257 -4.23985 0
-933.69 -4.51123 0
-932.128 -4.7733 0
-930.567 -5.023 0
-929.011 -5.26698 0
-927.454 -5.50124 0
-925.901 -5.72122 0
-924.352 -5.93274 0
-922.803 -6.13444 0
-921.256 -6.32476 0
-919.711 -6.50252 0
-918.165 -6.66878 0
-916.624 -6.82665 0
-915.08 -6.97164 0
-913.536 -7.1057 0
-911.994 -7.23063 0
-910.452 -7.34533 0
-908.91 -7.44851 0
-907.369 -7.54173 0
-905.827 -7.62296 0
-904.282 -7.69394 0
-902.741 -7.75493 0
-901.195 -7.80602 0
-899.649 -7.84904 0
-898.103 -7.87972 0
-896.557 -7.90272 0
-895.007 -7.9176 0
-893.458 -7.92365 0
-891.908 -7.91827 0
-890.354 -7.90978 0
-888.8 -7.89039 0
-887.243 -7.86323 0
-885.687 -7.83102 0
-884.127 -7.7917 0
-882.564 -7.74577 0
-881.002 -7.69437 0
-879.436 -7.63645 0
-877.871 -7.57425 0
-876.302 -7.50624 0
-874.73 -7.43281 0
-873.158 -7.3549 0
-871.585 -7.27691 0
-870.01 -7.18997 0
-868.43 -7.1034 0
-866.85 -7.01519 0
-865.268 -6.91991 0
-863.686 -6.82451 0
-862.099 -6.72851 0
-860.511 -6.62929 0
-858.922 -6.53028 0
-857.33 -6.42935 0
-855.739 -6.32618 0
-854.146 -6.22375 0
-852.548 -6.11924 0
-850.951 -6.01547 0
-849.353 -5.91422 0
-847.753 -5.80985 0
-846.151 -5.70501 0
-844.547 -5.6069 0
-842.943 -5.50665 0
-841.336 -5.40662 0
-839.727 -5.30783 0
-838.122 -5.21127 0
-836.511 -5.11933 0
-834.902 -5.02592 0
-833.289 -4.93384 0
-831.677 -4.84658 0
-830.065 -4.76092 0
-828.45 -4.67811 0
-826.835 -4.59657 0
-825.219 -4.51805 0
-823.602 -4.44407 0
-821.987 -4.36986 0
-820.369 -4.30308 0
-818.75 -4.23378 0
-817.132 -4.16904 0
-815.513 -4.11113 0
-813.893 -4.05155 0
-812.274 -3.99589 0
-810.654 -3.94495 0
-809.033 -3.89492 0
-807.412 -3.8517 0
-805.792 -3.8089 0
-804.173 -3.769 0
-802.551 -3.73427 0
-800.931 -3.7008 0
-799.312 -3.67265 0
-797.69 -3.64671 0
-796.068 -3.62045 0
-794.448 -3.60168 0
-792.828 -3.58552 0
-791.212 -3.57107 0
-789.592 -3.557 0
-787.972 -3.55118 0
-786.354 -3.54643 0
-784.733 -3.54438 0
-783.115 -3.5397 0
-781.499 -3.54022 0
-779.88 -3.54532 0
-778.265 -3.55057 0
-776.647 -3.55829 0
-775.03 -3.56807 0
-773.413 -3.57846 0
-771.799 -3.5943 0
-770.188 -3.60978 0
-768.571 -3.62896 0
-766.959 -3.64673 0
-765.346 -3.66733 0
-763.731 -3.69102 0
-762.121 -3.71578 0
-760.51 -3.74493 0
-758.899 -3.76936 0
-757.288 -3.79706 0
-755.678 -3.82424 0
-754.07 -3.85509 0
-752.46 -3.88708 0
-750.851 -3.91821 0
-749.244 -3.95069 0
-747.635 -3.98294 0
-746.028 -4.01741 0
-744.423 -4.05257 0
-742.815 -4.08589 0
-741.21 -4.12294 0
-739.604 -4.15589 0
-738.002 -4.19113 0
-736.397 -4.22619 0
-734.795 -4.26283 0
-733.193 -4.2985 0
-731.591 -4.32811 0
-729.989 -4.36234 0
-728.386 -4.39738 0
-726.785 -4.43501 0
-725.185 -4.4698 0
-723.586 -4.50001 0
-721.985 -4.5342 0
-720.386 -4.56729 0
-718.783 -4.59764 0
-717.184 -4.62877 0
-715.586 -4.66017 0
-713.986 -4.68825 0
-712.386 -4.71455 0
-710.79 -4.74558 0
-709.191 -4.77264 0
-707.593 -4.80255 0
-705.993 -4.83024 0
-704.401 -4.85749 0
-702.805 -4.87976 0
-701.208 -4.90306 0
-699.61 -4.92479 0
-698.012 -4.944 0
-696.416 -4.96438 0
-694.818 -4.98643 0
-693.222 -5.00413 0
-691.624 -5.02273 0
-690.028 -5.03922 0
-688.434 -5.05334 0
-686.839 -5.07089 0
-685.239 -5.08432 0
-683.646 -5.09861 0
-682.053 -5.10778 0
-680.454 -5.11776 0
-678.859 -5.12476 0
-677.262 -5.1339 0
-675.663 -5.14301 0
-674.067 -5.15107 0
-672.47 -5.15985 0
-670.875 -5.16321 0
-669.278 -5.17212 0
-667.68 -5.17368 0
-666.081 -5.17556 0
-664.483 -5.17633 0
-662.885 -5.18074 0
-661.29 -5.18051 0
-659.695 -5.18132 0
-658.098 -5.18111 0
-656.5 -5.17717 0
-654.903 -5.17483 0
-653.303 -5.17371 0
-651.708 -5.16942 0
-650.11 -5.16966 0
-648.512 -5.16571 0
-646.912 -5.1598 0
-645.315 -5.15609 0
-643.717 -5.14958 0
-642.121 -5.14051 0
-640.526 -5.1348 0
-638.924 -5.12828 0
-637.324 -5.1158 0
-635.726 -5.11014 0
-634.125 -5.09975 0
-632.524 -5.09375 0
-630.925 -5.08741 0
-629.325 -5.07907 0
-627.725 -5.06664 0
-626.128 -5.05427 0
-624.526 -5.04661 0
-622.928 -5.03681 0
-621.325 -5.02137 0
-619.726 -5.01474 0
-618.126 -5.00578 0
-616.525 -4.99364 0
-614.925 -4.98211 0
-613.32 -4.97159 0
-611.721 -4.96243 0
-610.118 -4.94946 0
-608.515 -4.93945 0
-606.912 -4.92558 0
-605.311 -4.91637 0
-603.71 -4.90449 0
-602.107 -4.90041 0
-600.503 -4.88779 0
-598.899 -4.87555 0
-597.298 -4.86222 0
-595.694 -4.85378 0
-594.09 -4.83795 0
-592.49 -4.82857 0
-590.885 -4.81947 0
-589.281 -4.81109 0
-587.678 -4.80265 0
-586.076 -4.79637 0
-584.474 -4.79182 0
-582.872 -4.78335 0
-581.267 -4.77363 0
-579.664 -4.76581 0
-578.061 -4.76041 0
-576.46 -4.74588 0
-574.858 -4.741 0
-573.252 -4.7348 0
-571.646 -4.72419 0
-570.044 -4.72104 0
-568.438 -4.71642 0
-566.833 -4.70688 0
-565.231 -4.70488 0
-563.627 -4.703 0
-562.023 -4.69525 0
-560.421 -4.69041 0
-558.819 -4.68722 0
-557.214 -4.68169 0
-555.612 -4.6806 0
-554.008 -4.67352 0
-552.404 -4.6721 0
-550.801 -4.67073 0
-549.197 -4.66433 0
-547.591 -4.66646 0
-545.991 -4.66195 0
-544.387 -4.66206 0
-542.785 -4.65831 0
-541.18 -4.65766 0
-539.574 -4.65497 0
-537.971 -4.65511 0
-536.368 -4.65343 0
-534.764 -4.65459 0
-533.164 -4.65671 0
-531.561 -4.65779 0
-529.96 -4.65604 0
-528.355 -4.6552 0
-526.75 -4.65834 0
-525.151 -4.66089 0
-523.547 -4.6624 0
-521.946 -4.66035 0
-520.341 -4.66615 0
-518.736 -4.66215 0
-517.13 -4.6651 0
-515.529 -4.66849 0
-513.921 -4.66896 0
-512.321 -4.67069 0
-510.722 -4.67589 0
-509.121 -4.67819 0
-507.523 -4.67944 0
-505.92 -4.68006 0
-504.315 -4.68547 0
-502.714 -4.68375 0
-501.116 -4.68968 0
-499.513 -4.6891 0
-497.911 -4.69542 0
-496.307 -4.69887 0
-494.703 -4.70117 0
-493.099 -4.70794 0
-491.498 -4.71323 0
-489.9 -4.71215 0
-488.295 -4.71353 0
-486.694 -4.71495 0
-485.091 -4.72003 0
-483.491 -4.72041 0
-481.883 -4.72927 0
-480.284 -4.72889 0
-478.682 -4.73232 0
-477.079 -4.73531 0
-475.475 -4.74016 0
-473.878 -4.74196 0
-472.279 -4.74529 0
-470.679 -4.74748 0
-469.076 -4.74903 0
-467.476 -4.75455 0
-465.871 -4.75974 0
-464.273 -4.76211 0
-462.67 -4.76504 0
-461.062 -4.76553 0
-459.459 -4.76959 0
-457.861 -4.77394 0
-456.261 -4.7778 0
-454.659 -4.7784 0
-453.064 -4.78226 0
-451.463 -4.78517 0
-449.861 -4.78586 0
-448.259 -4.79065 0
-446.659 -4.79061 0
-445.059 -4.79334 0
-443.46 -4.79271 0
-441.859 -4.79577 0
-440.26 -4.80009 0
-438.656 -4.79616 0
-437.052 -4.80059 0
-435.449 -4.7988 0
-433.849 -4.80675 0
-432.247 -4.80192 0
-430.648 -4.80704 0
-429.044 -4.81395 0
-427.444 -4.81573 0
-425.843 -4.81362 0
-424.243 -4.81363 0
-422.642 -4.81631 0
-421.041 -4.81486 0
-419.445 -4.81385 0
-417.838 -4.80964 0
-416.238 -4.81498 0
-414.635 -4.81465 0
-413.037 -4.81454 0
-411.435 -4.8213 0
-409.834 -4.81487 0
-408.233 -4.81867 0
-406.635 -4.81829 0
-405.037 -4.81841 0
-403.43 -4.81663 0
-401.827 -4.81377 0
-400.23 -4.80954 0
-398.628 -4.81136 0
-397.026 -4.81209 0
-395.421 -4.80696 0
-393.818 -4.80988 0
-392.219 -4.81005 0
-390.62 -4.81208 0
-389.018 -4.80517 0
-387.411 -4.80657 0
-385.809 -4.80946 0
-384.211 -4.80726 0
-382.613 -4.80503 0
-381.013 -4.80834 0
-379.407 -4.80597 0
-377.805 -4.7993 0
-376.205 -4.80262 0
-374.601 -4.79927 0
-373.003 -4.79634 0
-371.402 -4.79672 0
-369.802 -4.79858 0
-368.196 -4.79886 0
-366.603 -4.79574 0
-364.999 -4.79687 0
-363.396 -4.79034 0
-361.802 -4.78825 0
-360.195 -4.78716 0
-358.594 -4.78292 0
-357.001 -4.78444 0
-355.395 -4.78427 0
-353.795 -4.78748 0
-352.188 -4.7824 0
-350.584 -4.78262 0
-348.981 -4.78686 0
-347.382 -4.77734 0
-345.782 -4.77245 0
-344.183 -4.77873 0
-342.585 -4.77588 0
-340.982 -4.77765 0
-339.381 -4.77107 0
-337.781 -4.77541 0
-336.18 -4.77017 0
-334.578 -4.77838 0
-332.975 -4.77231 0
-331.373 -4.77029 0
-329.776 -4.76749 0
-328.171 -4.76557 0
-326.569 -4.76251 0
-324.97 -4.76048 0
-323.368 -4.76253 0
-321.769 -4.75986 0
-320.164 -4.75693 0
-318.56 -4.76211 0
-316.96 -4.75807 0
-315.359 -4.75648 0
-313.761 -4.75483 0
-312.158 -4.75435 0
-310.554 -4.75301 0
-308.953 -4.75421 0
-307.352 -4.75689 0
-305.751 -4.75213 0
-304.146 -4.74971 0
-302.546 -4.74815 0
-300.942 -4.75088 0
-299.337 -4.75169 0
-297.74 -4.74917 0
-296.135 -4.74862 0
-294.536 -4.74735 0
-292.938 -4.74606 0
-291.338 -4.74119 0
-289.736 -4.73857 0
-288.133 -4.73808 0
-286.529 -4.73703 0
-284.927 -4.74123 0
-283.325 -4.74101 0
-281.729 -4.74614 0
-280.129 -4.74074 0
-278.526 -4.738 0
-276.926 -4.73393 0
-275.328 -4.73595 0
-273.724 -4.74002 0
-272.121 -4.73899 0
-270.52 -4.74128 0
-268.921 -4.74219 0
-267.322 -4.73704 0
-265.722 -4.73525 0
-264.122 -4.73462 0
-262.523 -4.73316 0
-260.919 -4.735 0
-259.32 -4.74018 0
-257.716 -4.73847 0
-256.116 -4.73141 0
-254.509 -4.73429 0
-252.912 -4.7297 0
-251.304 -4.73409 0
-249.704 -4.73241 0
-248.105 -4.74079 0
-246.499 -4.73913 0
-244.897 -4.74245 0
-243.301 -4.74171 0
-241.702 -4.74502 0
-240.099 -4.74176 0
-238.496 -4.73919 0
-236.894 -4.73861 0
-235.294 -4.74609 0
-233.696 -4.74186 0
-232.097 -4.7407 0
-230.495 -4.73868 0
-228.889 -4.73904 0
-227.284 -4.73978 0
-225.686 -4.74514 0
-224.091 -4.74774 0
-222.49 -4.74511 0
-220.885 -4.74144 0
-219.287 -4.73733 0
-217.685 -4.73982 0
-216.085 -4.74121 0
-214.484 -4.74142 0
-212.885 -4.73771 0
-211.282 -4.73943 0
-209.681 -4.73908 0
-208.08 -4.73903 0
-206.477 -4.73751 0
-204.876 -4.73976 0
-203.27 -4.73356 0
-201.672 -4.7419 0
-200.075 -4.74102 0
-198.47 -4.73855 0
-196.869 -4.73584 0
-195.27 -4.73408 0
-193.664 -4.73516 0
-192.063 -4.735 0
-190.459 -4.74065 0
-188.864 -4.74456 0
-187.263 -4.74301 0
-185.665 -4.74391 0
-184.062 -4.74644 0
-182.464 -4.7495 0
-180.866 -4.74846 0
-179.258 -4.74779 0
-177.662 -4.7535 0
-176.062 -4.74983 0
-174.458 -4.74649 0
-172.858 -4.74818 0
-171.258 -4.7438 0
-169.66 -4.74685 0
-168.054 -4.74155 0
-166.457 -4.74396 0
-164.855 -4.73962 0
-163.252 -4.74044 0
-161.658 -4.74643 0
-160.058 -4.74722 0
-158.455 -4.75138 0
-156.852 -4.75044 0
-155.253 -4.748 0
-153.652 -4.74747 0
-152.049 -4.74734 0
-150.453 -4.74988 0
-148.854 -4.74742 0
-147.251 -4.7482 0
-145.649 -4.74769 0
-144.047 -4.7426 0
-142.442 -4.74731 0
-140.844 -4.74778 0
-139.241 -4.74736 0
-137.643 -4.75078 0
-136.045 -4.75236 0
-134.444 -4.75239 0
-132.842 -4.7479 0
-131.241 -4.75115 0
-129.639 -4.75438 0
-128.041 -4.74852 0
-126.442 -4.75055 0
-124.842 -4.75007 0
-123.24 -4.75187 0
-121.642 -4.74779 0
-120.037 -4.74952 0
-118.434 -4.75013 0
-116.834 -4.74799 0
-115.238 -4.75031 0
-113.636 -4.74703 0
-112.035 -4.74659 0
-110.437 -4.74646 0
-108.839 -4.74832 0
-107.237 -4.7461 0
-105.639 -4.74599 0
-104.039 -4.74737 0
-102.435 -4.74855 0
-100.834 -4.74989 0
-99.233 -4.75075 0
-97.6355 -4.74681 0
-96.0322 -4.74988 0
-94.4319 -4.7492 0
-92.8328 -4.75106 0
-91.2319 -4.74781 0
-89.6304 -4.74931 0
-88.0297 -4.75346 0
-86.4251 -4.74748 0
-84.8246 -4.75022 0
-83.2217 -4.74894 0
-81.621 -4.74805 0
-80.021 -4.74823 0
-78.4219 -4.74884 0
-76.8218 -4.74777 0
-75.22 -4.74676 0
-73.6218 -4.74671 0
-72.0232 -4.74808 0
-70.4221 -4.74849 0
-68.8201 -4.74843 0
-67.2219 -4.74873 0
-65.6211 -4.74989 0
-64.0179 -4.75059 0
-62.4153 -4.75208 0
-60.815 -4.75116 0
-59.2181 -4.75268 0
-57.6173 -4.75101 0
-56.0161 -4.74914 0
-54.4181 -4.7518 0
-52.8113 -4.752 0
-51.2125 -4.75066 0
-49.6115 -4.75221 0
-48.0126 -4.75351 0
-46.4095 -4.74995 0
-44.811 -4.74572 0
-43.2107 -4.74964 0
-41.6085 -4.74615 0
-40.0093 -4.74382 0
-38.4072 -4.74702 0
-36.8064 -4.75148 0
-35.2078 -4.75018 0
-33.6066 -4.74852 0
-32.0105 -4.74657 0
-30.4097 -4.74683 0
-28.8053 -4.74309 0
-27.2056 -4.74289 0
-25.6074 -4.74787 0
-24.0048 -4.74568 0
-22.4029 -4.74534 0
-20.8029 -4.73895 0
-19.2028 -4.74507 0
-17.6013 -4.74142 0
-16.0013 -4.74247 0
-14.4009 -4.7449 0
-12.8016 -4.74194 0
-11.2037 -4.74058 0
-9.60414 -4.74112 0
-8.00045 -4.74154 0
-6.40368 -4.74259 0
-4.80094 -4.74516 0
-3.20085 -4.74376 0
-1.59792 -4.75017 0
0 -4.7541 0
-1071.49 94.7297 0
-1071.83 85.0585 0
-1072.16 75.5382 0
-1072.46 66.2381 0
-1072.74 57.1909 0
-1072.96 48.4624 0
-1073.15 40.1414 0
-1073.3 32.2945 0
-1073.42 24.9607 0
-1073.5 18.1632 0
-1073.53 11.9196 0
-1073.49 6.24976 0
-1073.4 1.16689 0
-1073.32 -3.3739 0
-1073.35 -7.59009 0
-1073.3 -11.5674 0
-1073.22 -15.2177 0
-1073.1 -18.5029 0
-1072.95 -21.4022 0
-1072.79 -23.9067 0
-1072.59 -26.0289 0
-1072.37 -27.782 0
-1072.12 -29.1888 0
-1071.83 -30.273 0
-1071.5 -31.0622 0
-1071.13 -31.5879 0
-1070.7 -31.873 0
-1070.21 -31.9431 0
-1069.67 -31.8211 0
-1069.08 -31.5275 0
-1068.43 -31.0821 0
-1067.72 -30.5024 0
-1066.95 -29.8035 0
-1066.13 -28.9984 0
-1065.25 -28.1049 0
-1064.32 -27.1285 0
-1063.34 -26.0861 0
-1062.31 -24.9881 0
-1061.23 -23.8437 0
-1060.1 -22.6622 0
-1058.92 -21.4546 0
-1057.71 -20.2274 0
-1056.45 -18.986 0
-1055.15 -17.74 0
-1053.82 -16.4945 0
-1052.45 -15.2543 0
-1051.05 -14.0242 0
-1049.61 -12.8118 0
-1048.15 -11.6187 0
-1046.65 -10.4506 0
-1045.13 -9.30484 0
-1043.59 -8.19126 0
-1042.02 -7.11138 0
-1040.43 -6.06513 0
-1038.82 -5.05413 0
-1037.19 -4.08273 0
-1035.54 -3.14832 0
-1033.88 -2.25692 0
-1032.2 -1.40647 0
-1030.51 -0.598779 0
-1028.81 0.165768 0
-1027.1 0.885428 0
-1025.38 1.56179 0
-1023.64 2.19291 0
-1021.9 2.782 0
-1020.16 3.32629 0
-1018.41 3.828 0
-1016.65 4.28631 0
-1014.89 4.70306 0
-1013.13 5.07752 0
-1011.36 5.41101 0
-1009.59 5.70529 0
-1007.82 5.96035 0
-1006.05 6.17689 0
-1004.28 6.35924 0
-1002.51 6.50272 0
-1000.74 6.61231 0
-998.977 6.68645 0
-997.213 6.728 0
-995.453 6.73774 0
-993.695 6.7189 0
-991.942 6.6731 0
-990.193 6.59842 0
-988.447 6.49859 0
-986.707 6.37546 0
-984.973 6.22668 0
-983.242 6.05696 0
-981.517 5.86645 0
-979.798 5.65757 0
-978.085 5.4308 0
-976.377 5.1889 0
-974.675 4.93082 0
-972.98 4.65906 0
-971.29 4.37432 0
-969.606 4.07909 0
-967.93 3.77376 0
-966.259 3.46045 0
-964.594 3.1396 0
-962.934 2.81316 0
-961.282 2.48098 0
-959.634 2.14519 0
-957.994 1.80815 0
-956.357 1.46789 0
-954.726 1.12831 0
-953.101 0.788737 0
-951.481 0.450371 0
-949.865 0.114373 0
-948.254 -0.217887 0
-946.649 -0.548458 0
-945.049 -0.873194 0
-943.452 -1.19243 0
-941.86 -1.50732 0
-940.273 -1.81343 0
-938.687 -2.11007 0
-937.106 -2.40247 0
-935.527 -2.68511 0
-933.952 -2.95913 0
-932.38 -3.22475 0
-930.811 -3.47772 0
-929.244 -3.72319 0
-927.679 -3.95932 0
-926.116 -4.18275 0
-924.555 -4.39456 0
-922.995 -4.59855 0
-921.438 -4.78959 0
-919.881 -4.96823 0
-918.325 -5.13692 0
-916.772 -5.29394 0
-915.216 -5.44077 0
-913.664 -5.5754 0
-912.111 -5.70133 0
-910.558 -5.81404 0
-909.008 -5.91786 0
-907.454 -6.0115 0
-905.9 -6.09268 0
-904.348 -6.16264 0
-902.795 -6.223 0
-901.241 -6.27367 0
-899.687 -6.31546 0
-898.13 -6.34478 0
-896.573 -6.36733 0
-895.017 -6.38101 0
-893.458 -6.38564 0
-891.899 -6.37999 0
-890.339 -6.3693 0
-888.777 -6.34938 0
-887.214 -6.32004 0
-885.649 -6.28512 0
-884.084 -6.24433 0
-882.516 -6.19674 0
-880.948 -6.14435 0
-879.377 -6.08404 0
-877.806 -6.02037 0
-876.231 -5.95181 0
-874.658 -5.87668 0
-873.081 -5.79877 0
-871.503 -5.71692 0
-869.923 -5.62856 0
-868.342 -5.53936 0
-866.759 -5.44909 0
-865.176 -5.35227 0
-863.589 -5.25579 0
-862.001 -5.15825 0
-860.413 -5.05823 0
-858.823 -4.95707 0
-857.231 -4.85352 0
-855.638 -4.74976 0
-854.042 -4.64607 0
-852.448 -4.54006 0
-850.851 -4.43645 0
-849.253 -4.33176 0
-847.652 -4.22618 0
-846.051 -4.12168 0
-844.448 -4.01828 0
-842.844 -3.91944 0
-841.239 -3.81854 0
-839.634 -3.71995 0
-838.027 -3.62207 0
-836.42 -3.5274 0
-834.812 -3.43083 0
-833.202 -3.34106 0
-831.591 -3.25226 0
-829.981 -3.16646 0
-828.369 -3.08103 0
-826.756 -2.99943 0
-825.144 -2.92026 0
-823.53 -2.84544 0
-821.916 -2.77147 0
-820.302 -2.70355 0
-818.687 -2.63482 0
-817.071 -2.57124 0
-815.455 -2.50913 0
-813.838 -2.45158 0
-812.223 -2.39514 0
-810.605 -2.34185 0
-808.987 -2.29326 0
-807.37 -2.2498 0
-805.751 -2.20689 0
-804.136 -2.16809 0
-802.518 -2.13192 0
-800.901 -2.10109 0
-799.282 -2.07121 0
-797.665 -2.04272 0
-796.047 -2.01928 0
-794.43 -1.99925 0
-792.813 -1.98396 0
-791.197 -1.97084 0
-789.579 -1.95874 0
-787.964 -1.95053 0
-786.345 -1.94488 0
-784.73 -1.94258 0
-783.115 -1.9411 0
-781.499 -1.94183 0
-779.885 -1.94556 0
-778.27 -1.9515 0
-776.656 -1.96012 0
-775.042 -1.96955 0
-773.429 -1.98308 0
-771.815 -1.99849 0
-770.201 -2.0152 0
-768.59 -2.03183 0
-766.98 -2.05213 0
-765.367 -2.07271 0
-763.756 -2.09728 0
-762.146 -2.12097 0
-760.536 -2.1493 0
-758.926 -2.17738 0
-757.317 -2.20592 0
-755.709 -2.23103 0
-754.098 -2.26384 0
-752.49 -2.29469 0
-750.883 -2.32773 0
-749.274 -2.35976 0
-747.67 -2.39328 0
-746.062 -2.42876 0
-744.456 -2.46272 0
-742.849 -2.4994 0
-741.245 -2.53346 0
-739.642 -2.56802 0
-738.039 -2.60416 0
-736.433 -2.63923 0
-734.83 -2.67742 0
-733.227 -2.71123 0
-731.624 -2.74425 0
-730.022 -2.77742 0
-728.421 -2.8154 0
-726.818 -2.84972 0
-725.217 -2.88431 0
-723.616 -2.91772 0
-722.016 -2.95119 0
-720.415 -2.98456 0
-718.818 -3.01641 0
-717.215 -3.04567 0
-715.616 -3.07732 0
-714.016 -3.1054 0
-712.415 -3.13494 0
-710.817 -3.16452 0
-709.22 -3.19205 0
-707.622 -3.21967 0
-706.022 -3.24932 0
-704.424 -3.27782 0
-702.826 -3.29842 0
-701.228 -3.32091 0
-699.631 -3.34587 0
-698.034 -3.36427 0
-696.437 -3.38595 0
-694.838 -3.4043 0
-693.241 -3.42423 0
-691.644 -3.4422 0
-690.046 -3.45692 0
-688.447 -3.4756 0
-686.852 -3.49074 0
-685.254 -3.50555 0
-683.657 -3.51903 0
-682.06 -3.52851 0
-680.462 -3.53729 0
-678.865 -3.544 0
-677.267 -3.55513 0
-675.67 -3.56274 0
-674.074 -3.57239 0
-672.477 -3.57873 0
-670.877 -3.58502 0
-669.28 -3.59164 0
-667.683 -3.59375 0
-666.085 -3.59573 0
-664.487 -3.59697 0
-662.889 -3.60094 0
-661.293 -3.60134 0
-659.693 -3.59936 0
-658.096 -3.60043 0
-656.497 -3.59833 0
-654.901 -3.59297 0
-653.303 -3.5906 0
-651.704 -3.58942 0
-650.106 -3.58764 0
-648.506 -3.58445 0
-646.909 -3.57892 0
-645.31 -3.57522 0
-643.711 -3.56639 0
-642.113 -3.56267 0
-640.513 -3.55375 0
-638.917 -3.54232 0
-637.316 -3.53584 0
-635.717 -3.52648 0
-634.118 -3.51867 0
-632.517 -3.51152 0
-630.915 -3.50264 0
-629.316 -3.49623 0
-627.716 -3.48509 0
-626.115 -3.47447 0
-624.517 -3.46196 0
-622.916 -3.4547 0
-621.316 -3.43964 0
-619.716 -3.42865 0
-618.115 -3.42081 0
-616.513 -3.40955 0
-614.913 -3.39901 0
-613.31 -3.38827 0
-611.708 -3.37759 0
-610.105 -3.36581 0
-608.504 -3.35263 0
-606.902 -3.34435 0
-605.301 -3.33216 0
-603.697 -3.32311 0
-602.097 -3.31199 0
-600.494 -3.30306 0
-598.89 -3.28822 0
-597.287 -3.27643 0
-595.684 -3.26693 0
-594.081 -3.25461 0
-592.481 -3.24366 0
-590.878 -3.23589 0
-589.277 -3.2254 0
-587.673 -3.21681 0
-586.071 -3.21045 0
-584.467 -3.20484 0
-582.864 -3.19782 0
-581.262 -3.18997 0
-579.658 -3.18187 0
-578.055 -3.17233 0
-576.452 -3.16227 0
-574.849 -3.15529 0
-573.244 -3.14351 0
-571.639 -3.13912 0
-570.037 -3.13437 0
-568.435 -3.13135 0
-566.831 -3.12286 0
-565.227 -3.12145 0
-563.624 -3.11345 0
-562.02 -3.10877 0
-560.419 -3.10498 0
-558.817 -3.10397 0
-557.212 -3.09632 0
-555.608 -3.09142 0
-554.003 -3.08651 0
-552.398 -3.08371 0
-550.796 -3.0813 0
-549.193 -3.07917 0
-547.592 -3.07841 0
-545.99 -3.07531 0
-544.385 -3.07313 0
-542.784 -3.07183 0
-541.179 -3.07001 0
-539.576 -3.0693 0
-537.973 -3.06847 0
-536.368 -3.07126 0
-534.764 -3.07029 0
-533.164 -3.07195 0
-531.562 -3.07264 0
-529.957 -3.0714 0
-528.356 -3.07401 0
-526.752 -3.07256 0
-525.149 -3.0752 0
-523.548 -3.07487 0
-521.945 -3.07826 0
-520.343 -3.0769 0
-518.739 -3.07847 0
-517.135 -3.07949 0
-515.531 -3.08315 0
-513.928 -3.08268 0
-512.329 -3.08808 0
-510.726 -3.08787 0
-509.127 -3.09449 0
-507.525 -3.0939 0
-505.923 -3.09743 0
-504.321 -3.09799 0
-502.719 -3.10146 0
-501.116 -3.10351 0
-499.514 -3.10573 0
-497.912 -3.10982 0
-496.311 -3.11343 0
-494.709 -3.11669 0
-493.103 -3.12135 0
-491.501 -3.12459 0
-489.901 -3.12489 0
-488.296 -3.12765 0
-486.696 -3.13071 0
-485.094 -3.13549 0
-483.49 -3.13964 0
-481.888 -3.14383 0
-480.286 -3.14541 0
-478.684 -3.14766 0
-477.083 -3.14847 0
-475.484 -3.15502 0
-473.879 -3.15792 0
-472.281 -3.16421 0
-470.68 -3.16228 0
-469.077 -3.16718 0
-467.477 -3.16979 0
-465.878 -3.17617 0
-464.274 -3.18046 0
-462.67 -3.17953 0
-461.071 -3.18143 0
-459.469 -3.18646 0
-457.865 -3.18908 0
-456.267 -3.19536 0
-454.666 -3.19782 0
-453.065 -3.19836 0
-451.463 -3.20205 0
-449.863 -3.20331 0
-448.262 -3.20401 0
-446.661 -3.20787 0
-445.061 -3.20539 0
-443.461 -3.20879 0
-441.855 -3.21137 0
-440.257 -3.21489 0
-438.656 -3.21529 0
-437.049 -3.217 0
-435.449 -3.21873 0
-433.847 -3.22009 0
-432.247 -3.21914 0
-430.643 -3.22503 0
-429.045 -3.22711 0
-427.445 -3.23134 0
-425.844 -3.23293 0
-424.244 -3.23116 0
-422.642 -3.23205 0
-421.041 -3.23075 0
-419.437 -3.22784 0
-417.839 -3.22632 0
-416.239 -3.2318 0
-414.639 -3.22852 0
-413.037 -3.23188 0
-411.436 -3.23698 0
-409.836 -3.2342 0
-408.233 -3.23382 0
-406.631 -3.23472 0
-405.032 -3.23521 0
-403.43 -3.23427 0
-401.827 -3.23171 0
-400.226 -3.22654 0
-398.625 -3.22799 0
-397.025 -3.22552 0
-395.421 -3.22527 0
-393.822 -3.2262 0
-392.219 -3.2244 0
-390.618 -3.22601 0
-389.017 -3.22181 0
-387.419 -3.22139 0
-385.816 -3.226 0
-384.212 -3.22435 0
-382.609 -3.22458 0
-381.008 -3.2232 0
-379.406 -3.21861 0
-377.804 -3.21675 0
-376.206 -3.21567 0
-374.603 -3.21499 0
-373.001 -3.21631 0
-371.402 -3.21745 0
-369.803 -3.21379 0
-368.197 -3.21487 0
-366.597 -3.21347 0
-364.997 -3.21204 0
-363.398 -3.20854 0
-361.795 -3.20542 0
-360.198 -3.2057 0
-358.597 -3.20312 0
-356.993 -3.1998 0
-355.392 -3.19888 0
-353.788 -3.20109 0
-352.187 -3.19793 0
-350.585 -3.19853 0
-348.981 -3.19768 0
-347.383 -3.19366 0
-345.78 -3.19152 0
-344.179 -3.19174 0
-342.58 -3.19173 0
-340.98 -3.1884 0
-339.38 -3.18681 0
-337.778 -3.18691 0
-336.177 -3.19091 0
-334.576 -3.18944 0
-332.973 -3.18576 0
-331.373 -3.18558 0
-329.774 -3.18509 0
-328.172 -3.18035 0
-326.57 -3.1798 0
-324.971 -3.1766 0
-323.364 -3.1757 0
-321.767 -3.17934 0
-320.165 -3.17205 0
-318.564 -3.17624 0
-316.962 -3.17344 0
-315.358 -3.16912 0
-313.755 -3.17014 0
-312.155 -3.17043 0
-310.553 -3.16794 0
-308.951 -3.16855 0
-307.348 -3.17079 0
-305.752 -3.16771 0
-304.151 -3.16845 0
-302.549 -3.16681 0
-300.943 -3.1657 0
-299.343 -3.16574 0
-297.739 -3.1638 0
-296.141 -3.16582 0
-294.536 -3.16648 0
-292.934 -3.1612 0
-291.335 -3.16237 0
-289.734 -3.15443 0
-288.134 -3.15218 0
-286.533 -3.15472 0
-284.933 -3.15685 0
-283.331 -3.15491 0
-281.731 -3.15829 0
-280.131 -3.15744 0
-278.528 -3.15463 0
-276.926 -3.15326 0
-275.325 -3.15415 0
-273.728 -3.15573 0
-272.126 -3.15505 0
-270.521 -3.15766 0
-268.921 -3.15408 0
-267.32 -3.15582 0
-265.722 -3.15484 0
-264.118 -3.15235 0
-262.521 -3.15041 0
-260.92 -3.15069 0
-259.316 -3.15112 0
-257.716 -3.1549 0
-256.113 -3.15173 0
-254.513 -3.15059 0
-252.907 -3.14606 0
-251.308 -3.14809 0
-249.709 -3.14836 0
-248.106 -3.15282 0
-246.505 -3.15651 0
-244.902 -3.15824 0
-243.303 -3.16002 0
-241.698 -3.15844 0
-240.094 -3.15615 0
-238.495 -3.15751 0
-236.896 -3.15767 0
-235.294 -3.15889 0
-233.695 -3.1575 0
-232.094 -3.15312 0
-230.493 -3.15732 0
-228.892 -3.15105 0
-227.292 -3.15499 0
-225.688 -3.16045 0
-224.085 -3.16438 0
-222.485 -3.16159 0
-220.886 -3.15913 0
-219.287 -3.15716 0
-217.688 -3.16014 0
-216.085 -3.15783 0
-214.485 -3.15783 0
-212.881 -3.15365 0
-211.282 -3.15517 0
-209.681 -3.15695 0
-208.081 -3.15366 0
-206.478 -3.15276 0
-204.877 -3.15277 0
-203.277 -3.15422 0
-201.676 -3.15662 0
-200.073 -3.15383 0
-198.471 -3.15089 0
-196.869 -3.15508 0
-195.268 -3.15006 0
-193.668 -3.1499 0
-192.069 -3.15073 0
-190.467 -3.15679 0
-188.865 -3.15819 0
-187.264 -3.16008 0
-185.665 -3.16505 0
-184.064 -3.16317 0
-182.464 -3.16789 0
-180.86 -3.16376 0
-179.262 -3.16256 0
-177.662 -3.16571 0
-176.059 -3.16525 0
-174.458 -3.16052 0
-172.859 -3.16299 0
-171.259 -3.1592 0
-169.658 -3.16049 0
-168.057 -3.15978 0
-166.457 -3.15978 0
-164.856 -3.15728 0
-163.255 -3.15949 0
-161.654 -3.16424 0
-160.056 -3.16595 0
-158.457 -3.16358 0
-156.854 -3.16443 0
-155.253 -3.16442 0
-153.652 -3.16478 0
-152.053 -3.16371 0
-150.453 -3.16526 0
-148.851 -3.16529 0
-147.252 -3.16469 0
-145.647 -3.16382 0
-144.044 -3.16157 0
-142.444 -3.16343 0
-140.845 -3.1633 0
-139.243 -3.16781 0
-137.643 -3.16638 0
-136.044 -3.16966 0
-134.442 -3.16627 0
-132.841 -3.16624 0
-131.243 -3.16748 0
-129.641 -3.16902 0
-128.039 -3.16711 0
-126.439 -3.16754 0
-124.84 -3.16847 0
-123.24 -3.1659 0
-121.639 -3.16536 0
-120.039 -3.16633 0
-118.438 -3.16638 0
-116.837 -3.16481 0
-115.236 -3.166 0
-113.634 -3.16455 0
-112.037 -3.166 0
-110.437 -3.16288 0
-108.835 -3.16374 0
-107.233 -3.16238 0
-105.634 -3.16284 0
-104.034 -3.16407 0
-102.435 -3.16485 0
-100.833 -3.16777 0
-99.2346 -3.16753 0
-97.6342 -3.16558 0
-96.0346 -3.16553 0
-94.4336 -3.1661 0
-92.8312 -3.16675 0
-91.2311 -3.16621 0
-89.6293 -3.1687 0
-88.0269 -3.16498 0
-86.4255 -3.16628 0
-84.8246 -3.16684 0
-83.2232 -3.16617 0
-81.6225 -3.16505 0
-80.022 -3.16547 0
-78.4204 -3.16626 0
-76.8169 -3.16351 0
-75.2192 -3.1621 0
-73.6188 -3.16579 0
-72.0207 -3.16486 0
-70.4189 -3.16465 0
-68.8188 -3.16482 0
-67.2191 -3.16613 0
-65.6177 -3.16488 0
-64.0189 -3.16765 0
-62.4184 -3.16772 0
-60.817 -3.16956 0
-59.2151 -3.16861 0
-57.616 -3.16722 0
-56.0161 -3.16615 0
-54.415 -3.16705 0
-52.8151 -3.16772 0
-51.2145 -3.16665 0
-49.6138 -3.17039 0
-48.0094 -3.16706 0
-46.4108 -3.16589 0
-44.8073 -3.16384 0
-43.2072 -3.1654 0
-41.6077 -3.16296 0
-40.0073 -3.16427 0
-38.4088 -3.16454 0
-36.8074 -3.1666 0
-35.2084 -3.16818 0
-33.6066 -3.16625 0
-32.0087 -3.16522 0
-30.4095 -3.16053 0
-28.807 -3.16205 0
-27.206 -3.16247 0
-25.6061 -3.16002 0
-24.0033 -3.16265 0
-22.4038 -3.16104 0
-20.8044 -3.1589 0
-19.2004 -3.15837 0
-17.6024 -3.16011 0
-16.0015 -3.16043 0
-14.3999 -3.15915 0
-12.8022 -3.15884 0
-11.2005 -3.15583 0
-9.60368 -3.15885 0
-8.00344 -3.15982 0
-6.40312 -3.16165 0
-4.80227 -3.16061 0
-3.2001 -3.16333 0
-1.60332 -3.16743 0
0 -3.16821 0
-1081.37 95.5626 0
-1081.3 85.6572 0
-1081.4 76.1281 0
-1081.45 66.8364 0
-1081.42 57.8139 0
-1081.31 49.108 0
-1081.1 40.7942 0
-1080.82 32.9383 0
-1080.47 25.5928 0
-1080.06 18.7891 0
-1079.59 12.5493 0
-1079.06 6.87981 0
-1078.52 1.76057 0
-1078.05 -2.90908 0
-1077.63 -7.20243 0
-1077.25 -11.1567 0
-1076.83 -14.7879 0
-1076.35 -18.0575 0
-1075.84 -20.9486 0
-1075.29 -23.4529 0
-1074.73 -25.5742 0
-1074.16 -27.3238 0
-1073.57 -28.7209 0
-1072.96 -29.7904 0
-1072.35 -30.5571 0
-1071.7 -31.053 0
-1071.04 -31.3042 0
-1070.34 -31.3346 0
-1069.62 -31.1702 0
-1068.85 -30.8312 0
-1068.05 -30.339 0
-1067.21 -29.7123 0
-1066.32 -28.9638 0
-1065.4 -28.1102 0
-1064.43 -27.1683 0
-1063.42 -26.1461 0
-1062.37 -25.0577 0
-1061.29 -23.914 0
-1060.16 -22.7262 0
-1059 -21.5032 0
-1057.8 -20.2555 0
-1056.56 -18.9894 0
-1055.29 -17.7105 0
-1053.99 -16.4294 0
-1052.65 -15.1499 0
-1051.29 -13.8773 0
-1049.89 -12.6174 0
-1048.47 -11.3759 0
-1047.03 -10.1567 0
-1045.55 -8.96072 0
-1044.06 -7.79191 0
-1042.54 -6.65637 0
-1041 -5.55555 0
-1039.45 -4.48895 0
-1037.87 -3.46166 0
-1036.28 -2.4715 0
-1034.67 -1.5227 0
-1033.05 -0.616424 0
-1031.41 0.246129 0
-1029.76 1.06562 0
-1028.1 1.84058 0
-1026.43 2.57018 0
-1024.75 3.25426 0
-1023.06 3.89438 0
-1021.36 4.49036 0
-1019.66 5.04107 0
-1017.94 5.54692 0
-1016.23 6.00882 0
-1014.51 6.42934 0
-1012.78 6.80683 0
-1011.05 7.14305 0
-1009.32 7.43885 0
-1007.59 7.69487 0
-1005.86 7.91223 0
-1004.12 8.09236 0
-1002.38 8.23607 0
-1000.65 8.34293 0
-998.917 8.41607 0
-997.186 8.45548 0
-995.455 8.46315 0
-993.725 8.44165 0
-991.998 8.391 0
-990.274 8.31353 0
-988.554 8.20994 0
-986.836 8.08088 0
-985.123 7.92768 0
-983.413 7.75361 0
-981.707 7.55827 0
-980.005 7.34492 0
-978.308 7.11316 0
-976.616 6.86669 0
-974.928 6.60284 0
-973.246 6.32604 0
-971.568 6.03523 0
-969.895 5.73404 0
-968.226 5.42329 0
-966.562 5.10519 0
-964.904 4.77815 0
-963.25 4.44709 0
-961.601 4.11028 0
-959.957 3.76919 0
-958.317 3.42681 0
-956.683 3.08191 0
-955.052 2.73755 0
-953.427 2.39338 0