<?xml version="1.0"?>
<VTKFile type="StructuredGrid"  version="0.1" byte_order="LittleEndian" compressor="vtkZLibDataCompressor">
  <StructuredGrid WholeExtent="0 700 0 30 0 0">
    <Piece Extent="0 700 0 30 0 0">
      <PointData Vectors="Velocity">
        <DataArray type="Float32" Name="Velocity" NumberOfComponents="3" format="ascii">
-1082.53 121.394 0
-1082.87 110.318 0
-1083.26 99.3594 0
-1083.68 88.6281 0
-1084.11 78.1309 0
-1084.59 67.9531 0
-1085.13 58.1602 0
-1085.7 48.8167 0
-1086.29 39.9691 0
-1086.87 31.6289 0
-1087.45 23.8261 0
-1088.01 16.5835 0
-1088.55 9.92513 0
-1089 3.84096 0
-1089.29 -1.69798 0
-1089.55 -6.90677 0
-1089.84 -11.7754 0
-1090.08 -16.291 0
-1090.29 -20.4564 0
-1090.51 -24.2384 0
-1090.73 -27.6271 0
-1090.92 -30.6284 0
-1091.08 -33.2561 0
-1091.2 -35.5031 0
-1091.26 -37.4067 0
-1091.3 -38.9964 0
-1091.27 -40.2701 0
-1091.17 -41.2587 0
-1091.01 -41.9972 0
-1090.78 -42.4927 0
-1090.48 -42.7632 0
-1090.11 -42.8331 0
-1089.67 -42.7257 0
-1089.17 -42.4443 0
-1088.6 -42.0138 0
-1087.96 -41.4346 0
-1087.26 -40.734 0
-1086.5 -39.9118 0
-1085.67 -38.9918 0
-1084.78 -37.9858 0
-1083.84 -36.8909 0
-1082.84 -35.7325 0
-1081.78 -34.5083 0
-1080.67 -33.2301 0
-1079.51 -31.9146 0
-1078.31 -30.5556 0
-1077.05 -29.1691 0
-1075.75 -27.7662 0
-1074.41 -26.3448 0
-1073.03 -24.9157 0
-1071.61 -23.4811 0
-1070.15 -22.0439 0
-1068.66 -20.6158 0
-1067.13 -19.1989 0
-1065.58 -17.7969 0
-1063.99 -16.41 0
-1062.38 -15.0474 0
-1060.74 -13.7045 0
-1059.08 -12.391 0
-1057.39 -11.1087 0
-1055.69 -9.85877 0
-1053.96 -8.64007 0
-1052.22 -7.45865 0
-1050.45 -6.31216 0
-1048.68 -5.20671 0
-1046.89 -4.14033 0
-1045.09 -3.11569 0
-1043.27 -2.13122 0
-1041.44 -1.19114 0
-1039.6 -0.291327 0
-1037.75 0.563515 0
-1035.9 1.37294 0
-1034.04 2.1388 0
-1032.17 2.86143 0
-1030.3 3.53951 0
-1028.42 4.17174 0
-1026.55 4.76212 0
-1024.66 5.30737 0
-1022.78 5.80942 0
-1020.9 6.26961 0
-1019.01 6.68848 0
-1017.13 7.06682 0
-1015.24 7.40357 0
-1013.36 7.69893 0
-1011.48 7.95732 0
-1009.6 8.17242 0
-1007.73 8.35236 0
-1005.86 8.49602 0
-1003.99 8.60772 0
-1002.13 8.6795 0
-1000.27 8.72146 0
-998.419 8.73065 0
-996.572 8.70757 0
-994.731 8.6505 0
-992.896 8.56857 0
-991.067 8.46213 0
-989.246 8.32297 0
-987.43 8.16286 0
-985.621 7.98043 0
-983.819 7.76986 0
-982.025 7.54219 0
-980.237 7.29064 0
-978.458 7.02015 0
-976.683 6.73339 0
-974.917 6.42807 0
-973.16 6.1112 0
-971.411 5.7781 0
-969.665 5.42907 0
-967.929 5.07176 0
-966.203 4.69984 0
-964.484 4.32084 0
-962.774 3.93431 0
-961.066 3.54084 0
-959.367 3.14052 0
-957.676 2.73442 0
-955.991 2.32398 0
-954.313 1.91088 0
-952.642 1.49783 0
-950.978 1.08052 0
-949.315 0.666153 0
-947.663 0.251597 0
-946.014 -0.164451 0
-944.375 -0.576325 0
-942.74 -0.986177 0
-941.108 -1.38803 0
-939.483 -1.78697 0
-937.862 -2.18186 0
-936.244 -2.56899 0
-934.633 -2.95191 0
-933.025 -3.32746 0
-931.419 -3.6948 0
-929.819 -4.05326 0
-928.223 -4.4029 0
-926.632 -4.74334 0
-925.04 -5.07171 0
-923.453 -5.3949 0
-921.866 -5.7041 0
-920.281 -6.00423 0
-918.701 -6.29367 0
-917.124 -6.56979 0
-915.548 -6.83841 0
-913.975 -7.0964 0
-912.402 -7.3389 0
-910.829 -7.56944 0
-909.258 -7.78617 0
-907.687 -7.99467 0
-906.117 -8.19156 0
-904.547 -8.37609 0
-902.98 -8.55029 0
-901.413 -8.70994 0
-899.844 -8.85908 0
-898.274 -8.99381 0
-896.704 -9.12005 0
-895.137 -9.23459 0
-893.568 -9.33215 0
-891.999 -9.42519 0
-890.428 -9.50253 0
-888.854 -9.57285 0
-887.281 -9.63195 0
-885.708 -9.67831 0
-884.134 -9.71504 0
-882.555 -9.74235 0
-880.978 -9.75984 0
-879.398 -9.76995 0
-877.819 -9.76985 0
-876.236 -9.75928 0
-874.653 -9.74132 0
-873.068 -9.71602 0
-871.483 -9.67745 0
-869.893 -9.6358 0
-868.305 -9.58242 0
-866.714 -9.52604 0
-865.121 -9.46196 0
-863.524 -9.3949 0
-861.924 -9.32035 0
-860.324 -9.23703 0
-858.726 -9.15103 0
-857.121 -9.05697 0
-855.515 -8.96299 0
-853.908 -8.8595 0
-852.298 -8.75353 0
-850.688 -8.64305 0
-849.075 -8.53047 0
-847.46 -8.41302 0
-845.843 -8.29569 0
-844.227 -8.17355 0
-842.607 -8.04804 0
-840.985 -7.92275 0
-839.361 -7.79427 0
-837.734 -7.66473 0
-836.108 -7.53688 0
-834.48 -7.40409 0
-832.849 -7.26993 0
-831.218 -7.1395 0
-829.585 -7.00553 0
-827.95 -6.87216 0
-826.316 -6.73597 0
-824.676 -6.60213 0
-823.038 -6.46986 0
-821.397 -6.34106 0
-819.755 -6.20944 0
-818.108 -6.08132 0
-816.463 -5.95543 0
-814.817 -5.83146 0
-813.169 -5.70645 0
-811.522 -5.58708 0
-809.874 -5.46731 0
-808.224 -5.34627 0
-806.574 -5.23211 0
-804.921 -5.12055 0
-803.268 -5.00979 0
-801.616 -4.89999 0
-799.961 -4.79602 0
-798.308 -4.69464 0
-796.65 -4.59618 0
-794.994 -4.50366 0
-793.337 -4.41217 0
-791.681 -4.32213 0
-790.022 -4.23473 0
-788.364 -4.15116 0
-786.704 -4.06919 0
-785.043 -3.99719 0
-783.385 -3.92277 0
-781.728 -3.85246 0
-780.068 -3.78753 0
-778.409 -3.72356 0
-776.748 -3.6645 0
-775.088 -3.60745 0
-773.428 -3.55995 0
-771.765 -3.50807 0
-770.106 -3.4637 0
-768.446 -3.42071 0
-766.787 -3.3792 0
-765.127 -3.34359 0
-763.466 -3.31368 0
-761.809 -3.28414 0
-760.149 -3.2569 0
-758.491 -3.23366 0
-756.832 -3.21134 0
-755.173 -3.19599 0
-753.517 -3.18346 0
-751.86 -3.17434 0
-750.197 -3.16483 0
-748.543 -3.15808 0
-746.887 -3.15523 0
-745.23 -3.15531 0
-743.573 -3.15696 0
-741.917 -3.16817 0
-740.261 -3.1765 0
-738.61 -3.18172 0
-736.952 -3.19754 0
-735.3 -3.20607 0
-733.646 -3.22402 0
-731.995 -3.24671 0
-730.345 -3.26702 0
-728.692 -3.28534 0
-727.041 -3.31273 0
-725.392 -3.33912 0
-723.741 -3.36529 0
-722.092 -3.39516 0
-720.442 -3.42425 0
-718.794 -3.45732 0
-717.149 -3.48887 0
-715.501 -3.524 0
-713.853 -3.56148 0
-712.207 -3.59278 0
-710.56 -3.63122 0
-708.918 -3.66898 0
-707.273 -3.70564 0
-705.628 -3.74427 0
-703.982 -3.7867 0
-702.342 -3.82197 0
-700.698 -3.86754 0
-699.053 -3.90894 0
-697.415 -3.95179 0
-695.777 -3.99361 0
-694.132 -4.03443 0
-692.492 -4.07498 0
-690.853 -4.1158 0
-689.214 -4.16106 0
-687.575 -4.20209 0
-685.935 -4.24273 0
-684.293 -4.28464 0
-682.66 -4.32536 0
-681.024 -4.36443 0
-679.387 -4.40746 0
-677.753 -4.45328 0
-676.115 -4.48944 0
-674.471 -4.53349 0
-672.842 -4.56766 0
-671.206 -4.60814 0
-669.573 -4.64311 0
-667.939 -4.6807 0
-666.303 -4.71572 0
-664.67 -4.75466 0
-663.034 -4.79025 0
-661.404 -4.82349 0
-659.773 -4.85422 0
-658.135 -4.88869 0
-656.502 -4.91906 0
-654.866 -4.94481 0
-653.233 -4.98141 0
-651.597 -5.01281 0
-649.967 -5.0389 0
-648.334 -5.06796 0
-646.708 -5.0926 0
-645.072 -5.11572 0
-643.441 -5.13662 0
-641.811 -5.16133 0
-640.178 -5.18359 0
-638.544 -5.20396 0
-636.915 -5.22402 0
-635.281 -5.24579 0
-633.649 -5.26391 0
-632.017 -5.27794 0
-630.387 -5.29596 0
-628.758 -5.30461 0
-627.124 -5.32114 0
-625.491 -5.33439 0
-623.858 -5.34465 0
-622.226 -5.35954 0
-620.595 -5.3645 0
-618.965 -5.37541 0
-617.332 -5.37754 0
-615.701 -5.38602 0
-614.072 -5.39209 0
-612.435 -5.39898 0
-610.803 -5.40405 0
-609.167 -5.4065 0
-607.538 -5.40997 0
-605.905 -5.40937 0
-604.272 -5.40718 0
-602.64 -5.41313 0
-601.006 -5.40863 0
-599.373 -5.40741 0
-597.741 -5.40737 0
-596.107 -5.404 0
-594.474 -5.40216 0
-592.842 -5.39852 0
-591.207 -5.3921 0
-589.572 -5.38537 0
-587.937 -5.37907 0
-586.302 -5.37237 0
-584.668 -5.3643 0
-583.029 -5.35954 0
-581.394 -5.3456 0
-579.758 -5.33419 0
-578.125 -5.3298 0
-576.491 -5.31415 0
-574.859 -5.3078 0
-573.226 -5.30067 0
-571.588 -5.28842 0
-569.949 -5.27332 0
-568.311 -5.26248 0
-566.675 -5.2502 0
-565.037 -5.23757 0
-563.404 -5.23055 0
-561.767 -5.214 0
-560.132 -5.1977 0
-558.496 -5.18229 0
-556.856 -5.16982 0
-555.218 -5.15604 0
-553.577 -5.14273 0
-551.941 -5.12677 0
-550.307 -5.11687 0
-548.667 -5.1067 0
-547.024 -5.08937 0
-545.388 -5.07494 0
-543.748 -5.06086 0
-542.111 -5.04601 0
-540.472 -5.03408 0
-538.836 -5.01823 0
-537.195 -5.00719 0
-535.555 -4.99435 0
-533.917 -4.98381 0
-532.277 -4.96495 0
-530.639 -4.95295 0
-529.002 -4.9424 0
-527.362 -4.92902 0
-525.724 -4.91657 0
-524.082 -4.9061 0
-522.44 -4.89416 0
-520.801 -4.88346 0
-519.165 -4.86929 0
-517.522 -4.86005 0
-515.879 -4.84531 0
-514.238 -4.83475 0
-512.604 -4.82418 0
-510.963 -4.81291 0
-509.326 -4.80052 0
-507.69 -4.78981 0
-506.05 -4.78213 0
-504.408 -4.77797 0
-502.768 -4.76055 0
-501.133 -4.75509 0
-499.493 -4.74627 0
-497.853 -4.73445 0
-496.206 -4.7266 0
-494.563 -4.71896 0
-492.926 -4.71333 0
-491.287 -4.70531 0
-489.649 -4.69713 0
-488.009 -4.69384 0
-486.371 -4.68981 0
-484.726 -4.68168 0
-483.09 -4.67816 0
-481.45 -4.66851 0
-479.808 -4.66433 0
-478.168 -4.66228 0
-476.527 -4.65926 0
-474.888 -4.65439 0
-473.248 -4.65954 0
-471.609 -4.6519 0
-469.967 -4.64655 0
-468.324 -4.6433 0
-466.687 -4.63878 0
-465.05 -4.63848 0
-463.413 -4.63945 0
-461.77 -4.63251 0
-460.13 -4.63589 0
-458.487 -4.64162 0
-456.849 -4.63307 0
-455.206 -4.63638 0
-453.566 -4.63951 0
-451.927 -4.6422 0
-450.286 -4.64431 0
-448.649 -4.63536 0
-447.011 -4.64096 0
-445.374 -4.64007 0
-443.736 -4.64074 0
-442.094 -4.64483 0
-440.453 -4.64162 0
-438.81 -4.64748 0
-437.174 -4.65561 0
-435.534 -4.65373 0
-433.896 -4.65819 0
-432.261 -4.65705 0
-430.619 -4.66003 0
-428.98 -4.66567 0
-427.336 -4.66695 0
-425.695 -4.67708 0
-424.06 -4.67042 0
-422.425 -4.67489 0
-420.785 -4.67902 0
-419.144 -4.68274 0
-417.506 -4.69501 0
-415.863 -4.69556 0
-414.225 -4.70274 0
-412.588 -4.70677 0
-410.949 -4.70948 0
-409.31 -4.71479 0
-407.669 -4.71774 0
-406.032 -4.72023 0
-404.397 -4.72814 0
-402.757 -4.73349 0
-401.119 -4.72986 0
-399.481 -4.73741 0
-397.839 -4.7421 0
-396.198 -4.75128 0
-394.559 -4.75272 0
-392.923 -4.75646 0
-391.291 -4.75861 0
-389.652 -4.759 0
-388.009 -4.76603 0
-386.372 -4.76872 0
-384.738 -4.77911 0
-383.102 -4.78987 0
-381.467 -4.7942 0
-379.827 -4.79605 0
-378.194 -4.79366 0
-376.556 -4.79964 0
-374.917 -4.80131 0
-373.28 -4.81077 0
-371.64 -4.81156 0
-370 -4.81568 0
-368.362 -4.82004 0
-366.73 -4.82807 0
-365.096 -4.83238 0
-363.458 -4.83723 0
-361.819 -4.83649 0
-360.181 -4.83832 0
-358.541 -4.84344 0
-356.905 -4.84872 0
-355.266 -4.84974 0
-353.635 -4.8605 0
-351.996 -4.8633 0
-350.359 -4.86614 0
-348.72 -4.87107 0
-347.081 -4.8736 0
-345.443 -4.87289 0
-343.802 -4.87721 0
-342.172 -4.87669 0
-340.535 -4.884 0
-338.897 -4.87794 0
-337.26 -4.88329 0
-335.624 -4.88706 0
-333.984 -4.8892 0
-332.343 -4.88609 0
-330.704 -4.89076 0
-329.069 -4.89168 0
-327.432 -4.89968 0
-325.79 -4.89998 0
-324.155 -4.90615 0
-322.519 -4.90824 0
-320.878 -4.9122 0
-319.245 -4.91168 0
-317.603 -4.91276 0
-315.969 -4.9129 0
-314.337 -4.90652 0
-312.698 -4.91332 0
-311.059 -4.91512 0
-309.427 -4.9206 0
-307.786 -4.91739 0
-306.153 -4.92108 0
-304.515 -4.92711 0
-302.871 -4.92224 0
-301.233 -4.92771 0
-299.602 -4.92228 0
-297.97 -4.92348 0
-296.329 -4.92643 0
-294.687 -4.92659 0
-293.051 -4.93371 0
-291.412 -4.92383 0
-289.778 -4.92216 0
-288.139 -4.92402 0
-286.505 -4.93394 0
-284.871 -4.93144 0
-283.232 -4.93402 0
-281.596 -4.93067 0
-279.955 -4.93013 0
-278.315 -4.932 0
-276.678 -4.93394 0
-275.041 -4.93247 0
-273.407 -4.9288 0
-271.769 -4.93624 0
-270.136 -4.92393 0
-268.502 -4.92871 0
-266.859 -4.93448 0
-265.218 -4.92935 0
-263.588 -4.92583 0
-261.947 -4.92905 0
-260.313 -4.93412 0
-258.676 -4.93204 0
-257.033 -4.92266 0
-255.398 -4.92109 0
-253.756 -4.92424 0
-252.122 -4.92121 0
-250.482 -4.91901 0
-248.851 -4.92339 0
-247.216 -4.92081 0
-245.569 -4.91951 0
-243.936 -4.92458 0
-242.294 -4.91911 0
-240.654 -4.92155 0
-239.018 -4.91849 0
-237.383 -4.91807 0
-235.749 -4.91111 0
-234.108 -4.90874 0
-232.475 -4.90245 0
-230.83 -4.90434 0
-229.195 -4.90352 0
-227.556 -4.90564 0
-225.924 -4.90422 0
-224.287 -4.90002 0
-222.646 -4.89724 0
-221.013 -4.90436 0
-219.377 -4.90183 0
-217.743 -4.90027 0
-216.099 -4.90403 0
-214.466 -4.9001 0
-212.827 -4.89603 0
-211.191 -4.89419 0
-209.554 -4.89226 0
-207.915 -4.8954 0
-206.279 -4.89498 0
-204.64 -4.8971 0
-203.005 -4.89327 0
-201.364 -4.88462 0
-199.726 -4.88283 0
-198.088 -4.88264 0
-196.445 -4.87988 0
-194.808 -4.8825 0
-193.172 -4.87573 0
-191.534 -4.8751 0
-189.897 -4.87696 0
-188.264 -4.88354 0
-186.629 -4.8746 0
-184.989 -4.87995 0
-183.351 -4.87104 0
-181.713 -4.86701 0
-180.076 -4.86738 0
-178.44 -4.87092 0
-176.801 -4.86919 0
-175.163 -4.86473 0
-173.526 -4.86841 0
-171.892 -4.86588 0
-170.255 -4.86416 0
-168.614 -4.86927 0
-166.981 -4.86275 0
-165.344 -4.8583 0
-163.699 -4.85762 0
-162.062 -4.85713 0
-160.425 -4.86083 0
-158.787 -4.85603 0
-157.158 -4.8561 0
-155.519 -4.85316 0
-153.883 -4.8564 0
-152.246 -4.85803 0
-150.605 -4.85822 0
-148.967 -4.85757 0
-147.331 -4.85682 0
-145.694 -4.8588 0
-144.057 -4.86033 0
-142.425 -4.85498 0
-140.785 -4.86279 0
-139.144 -4.8588 0
-137.51 -4.8601 0
-135.872 -4.85436 0
-134.235 -4.85154 0
-132.598 -4.85061 0
-130.962 -4.8517 0
-129.323 -4.85894 0
-127.685 -4.85725 0
-126.052 -4.85728 0
-124.411 -4.85623 0
-122.775 -4.86144 0
-121.134 -4.86033 0
-119.497 -4.85555 0
-117.857 -4.85706 0
-116.225 -4.85231 0
-114.587 -4.8533 0
-112.95 -4.85828 0
-111.313 -4.85467 0
-109.678 -4.86052 0
-108.036 -4.86168 0
-106.401 -4.8688 0
-104.763 -4.86607 0
-103.125 -4.86789 0
-101.495 -4.86498 0
-99.8537 -4.86416 0
-98.2122 -4.86579 0
-96.5709 -4.86644 0
-94.9375 -4.87083 0
-93.2988 -4.86988 0
-91.6609 -4.87385 0
-90.0272 -4.87261 0
-88.3938 -4.87037 0
-86.7599 -4.87348 0
-85.1178 -4.87713 0
-83.4836 -4.87613 0
-81.8493 -4.866 0
-80.2133 -4.87052 0
-78.5753 -4.86715 0
-76.9327 -4.87248 0
-75.287 -4.8681 0
-73.6469 -4.87321 0
-72.0178 -4.87522 0
-70.3879 -4.87127 0
-68.7478 -4.87207 0
-67.1116 -4.87922 0
-65.4711 -4.86716 0
-63.8331 -4.87416 0
-62.1921 -4.86711 0
-60.5575 -4.87024 0
-58.9182 -4.87221 0
-57.2852 -4.86867 0
-55.6472 -4.8749 0
-54.0071 -4.87104 0
-52.3729 -4.8762 0
-50.7324 -4.87271 0
-49.1014 -4.87118 0
-47.4615 -4.87455 0
-45.8283 -4.87572 0
-44.1912 -4.87902 0
-42.5528 -4.87067 0
-40.9169 -4.87775 0
-39.2814 -4.87611 0
-37.639 -4.87525 0
-36.0078 -4.87654 0
-34.3701 -4.87092 0
-32.7323 -4.87548 0
-31.0977 -4.87619 0
-29.4596 -4.88293 0
-27.8213 -4.8793 0
-26.1883 -4.87516 0
-24.5526 -4.87151 0
-22.917 -4.87433 0
-21.2763 -4.87039 0
-19.6379 -4.87376 0
-18.0014 -4.8788 0
-16.3681 -4.87547 0
-14.7337 -4.86928 0
-13.0958 -4.87472 0
-11.4549 -4.8754 0
-9.82125 -4.87756 0
-8.18633 -4.87687 0
-6.54848 -4.87674 0
-4.90886 -4.87209 0
-3.27345 -4.87758 0
-1.63919 -4.87524 0
0 -4.88054 0
-1093.6 121.764 0
-1093.83 110.636 0
-1094.06 99.6613 0
-1094.28 88.9036 0
-1094.47 78.39 0
-1094.62 68.1697 0
-1094.74 58.328 0
-1094.84 48.9429 0
-1094.91 40.0563 0
-1094.96 31.699 0
-1094.97 23.875 0
-1094.94 16.6278 0
-1094.86 9.97633 0
-1094.74 3.92507 0
-1094.67 -1.62834 0
-1094.62 -6.81739 0
-1094.53 -11.7081 0
-1094.42 -16.232 0
-1094.3 -20.3951 0
-1094.16 -24.1731 0
-1093.98 -27.5543 0
-1093.79 -30.5496 0
-1093.57 -33.1571 0
-1093.33 -35.387 0
-1093.06 -37.2662 0
-1092.77 -38.8192 0
-1092.44 -40.0464 0
-1092.07 -40.9909 0
-1091.65 -41.6705 0
-1091.19 -42.111 0
-1090.68 -42.3269 0
-1090.11 -42.3402 0
-1089.5 -42.1714 0
-1088.83 -41.8348 0
-1088.11 -41.3407 0
-1087.34 -40.7107 0
-1086.51 -39.9497 0
-1085.64 -39.0737 0
-1084.72 -38.0985 0
-1083.74 -37.0342 0
-1082.72 -35.8917 0
-1081.66 -34.6782 0
-1080.55 -33.4054 0
-1079.39 -32.0814 0
-1078.19 -30.7175 0
-1076.95 -29.3154 0
-1075.67 -27.8871 0
-1074.35 -26.4405 0
-1073 -24.9817 0
-1071.61 -23.5142 0
-1070.19 -22.0464 0
-1068.73 -20.5781 0
-1067.25 -19.1183 0
-1065.74 -17.6723 0
-1064.2 -16.2391 0
-1062.64 -14.8275 0
-1061.04 -13.4369 0
-1059.43 -12.071 0
-1057.8 -10.7372 0
-1056.14 -9.4324 0
-1054.47 -8.16326 0
-1052.78 -6.92769 0
-1051.07 -5.72885 0
-1049.35 -4.57004 0
-1047.61 -3.44776 0
-1045.86 -2.36835 0
-1044.09 -1.33117 0
-1042.32 -0.335579 0
-1040.53 0.615649 0
-1038.74 1.52127 0
-1036.94 2.38469 0
-1035.12 3.1997 0
-1033.31 3.97524 0
-1031.48 4.70108 0
-1029.66 5.38114 0
-1027.82 6.02008 0
-1025.99 6.61051 0
-1024.15 7.15905 0
-1022.31 7.66135 0
-1020.47 8.12284 0
-1018.62 8.54254 0
-1016.78 8.91894 0
-1014.94 9.25646 0
-1013.1 9.55083 0
-1011.25 9.80411 0
-1009.41 10.0184 0
-1007.57 10.1954 0
-1005.74 10.3355 0
-1003.9 10.4409 0
-1002.08 10.5115 0
-1000.25 10.5478 0
-998.43 10.5523 0
-996.614 10.5238 0
-994.802 10.4623 0
-992.992 10.3744 0
-991.19 10.262 0
-989.394 10.1184 0
-987.603 9.95185 0
-985.818 9.76064 0
-984.039 9.54647 0
-982.264 9.31049 0
-980.497 9.05289 0
-978.734 8.77808 0
-976.979 8.48434 0
-975.228 8.17217 0
-973.485 7.84557 0
-971.748 7.507 0
-970.018 7.15201 0
-968.293 6.78468 0
-966.577 6.4086 0
-964.866 6.02322 0
-963.16 5.62902 0
-961.461 5.22708 0
-959.768 4.82133 0
-958.08 4.40842 0
-956.398 3.99395 0
-954.723 3.57375 0
-953.054 3.15402 0
-951.388 2.73166 0
-949.73 2.31151 0
-948.075 1.89048 0
-946.426 1.47074 0
-944.782 1.05113 0
-943.142 0.639803 0
-941.507 0.231309 0
-939.877 -0.171858 0
-938.25 -0.571465 0
-936.627 -0.963679 0
-935.007 -1.35022 0
-933.391 -1.72875 0
-931.781 -2.09922 0
-930.17 -2.46066 0
-928.563 -2.81304 0
-926.961 -3.15734 0
-925.361 -3.4884 0
-923.764 -3.81267 0
-922.167 -4.12455 0
-920.575 -4.42794 0
-918.983 -4.71854 0
-917.394 -4.99814 0
-915.809 -5.26903 0
-914.222 -5.52709 0
-912.638 -5.77089 0
-911.052 -6.00187 0
-909.469 -6.22121 0
-907.887 -6.42932 0
-906.305 -6.62707 0
-904.725 -6.81202 0
-903.145 -6.98545 0
-901.564 -7.14603 0
-899.984 -7.29374 0
-898.403 -7.43035 0
-896.821 -7.55471 0
-895.242 -7.66903 0
-893.663 -7.77006 0
-892.081 -7.85907 0
-890.5 -7.93642 0
-888.918 -8.00431 0
-887.333 -8.0647 0
-885.749 -8.10921 0
-884.165 -8.14484 0
-882.579 -8.17163 0
-880.992 -8.18728 0
-879.404 -8.19608 0
-877.814 -8.19431 0
-876.223 -8.18105 0
-874.632 -8.16339 0
-873.037 -8.13497 0
-871.443 -8.09682 0
-869.847 -8.05271 0
-868.251 -8.00045 0
-866.653 -7.94155 0
-865.054 -7.87578 0
-863.45 -7.80477 0
-861.847 -7.72875 0
-860.242 -7.64483 0
-858.635 -7.55577 0
-857.026 -7.4609 0
-855.418 -7.36418 0
-853.805 -7.25808 0
-852.192 -7.15137 0
-850.578 -7.04068 0
-848.96 -6.92516 0
-847.343 -6.809 0
-845.725 -6.68671 0
-844.104 -6.56368 0
-842.484 -6.43728 0
-840.859 -6.30991 0
-839.233 -6.17864 0
-837.606 -6.04792 0
-835.978 -5.91863 0
-834.349 -5.78489 0
-832.718 -5.64947 0
-831.087 -5.51554 0
-829.453 -5.38014 0
-827.815 -5.24499 0
-826.179 -5.1094 0
-824.544 -4.97471 0
-822.906 -4.84129 0
-821.266 -4.71183 0
-819.624 -4.57982 0
-817.982 -4.44843 0
-816.338 -4.32186 0
-814.694 -4.19487 0
-813.05 -4.07019 0
-811.404 -3.94857 0
-809.757 -3.82751 0
-808.109 -3.70935 0
-806.46 -3.59244 0
-804.81 -3.48071 0
-803.161 -3.36974 0
-801.509 -3.25784 0
-799.858 -3.15395 0
-798.206 -3.05049 0
-796.554 -2.95216 0
-794.901 -2.85909 0
-793.247 -2.76686 0
-791.593 -2.67545 0
-789.939 -2.58678 0
-788.283 -2.50289 0
-786.626 -2.42442 0
-784.971 -2.3471 0
-783.314 -2.27504 0
-781.659 -2.20566 0
-780.001 -2.14026 0
-778.347 -2.07782 0
-776.692 -2.01735 0
-775.036 -1.96042 0
-773.378 -1.90965 0
-771.721 -1.86082 0
-770.063 -1.81555 0
-768.406 -1.77254 0
-766.751 -1.73228 0
-765.095 -1.69671 0
-763.437 -1.6642 0
-761.781 -1.6363 0
-760.125 -1.60847 0
-758.47 -1.58624 0
-756.815 -1.56633 0
-755.16 -1.55162 0
-753.504 -1.53879 0
-751.848 -1.52687 0
-750.194 -1.51805 0
-748.538 -1.51314 0
-746.883 -1.51107 0
-745.232 -1.51103 0
-743.579 -1.51348 0
-741.925 -1.52396 0
-740.27 -1.53196 0
-738.618 -1.54186 0
-736.968 -1.55368 0
-735.316 -1.56735 0
-733.665 -1.58348 0
-732.014 -1.60665 0
-730.363 -1.62522 0
-728.716 -1.64688 0
-727.065 -1.6734 0
-725.418 -1.69771 0
-723.769 -1.72529 0
-722.121 -1.75713 0
-720.474 -1.78573 0
-718.827 -1.82074 0
-717.18 -1.85309 0
-715.534 -1.88946 0
-713.888 -1.92431 0
-712.243 -1.95855 0
-710.597 -1.99839 0
-708.955 -2.03498 0
-707.311 -2.0728 0
-705.668 -2.1122 0
-704.024 -2.15131 0
-702.379 -2.1917 0
-700.739 -2.23414 0
-699.098 -2.27789 0
-697.458 -2.32079 0
-695.818 -2.3622 0
-694.176 -2.40218 0
-692.534 -2.44322 0
-690.896 -2.48877 0
-689.255 -2.53018 0
-687.615 -2.57427 0
-685.977 -2.61269 0
-684.338 -2.65517 0
-682.701 -2.69814 0
-681.065 -2.737 0
-679.428 -2.7813 0
-677.789 -2.82579 0
-676.152 -2.86269 0
-674.515 -2.90605 0
-672.877 -2.9454 0
-671.243 -2.98161 0
-669.609 -3.02063 0
-667.974 -3.05676 0
-666.339 -3.09309 0
-664.705 -3.12816 0
-663.07 -3.16381 0
-661.436 -3.19935 0
-659.8 -3.23074 0
-658.165 -3.26542 0
-656.531 -3.29568 0
-654.896 -3.32488 0
-653.264 -3.35702 0
-651.626 -3.38779 0
-649.995 -3.41537 0
-648.361 -3.44421 0
-646.728 -3.4701 0
-645.096 -3.49514 0
-643.465 -3.51776 0
-641.83 -3.53874 0
-640.198 -3.55885 0
-638.565 -3.5841 0
-636.933 -3.60306 0
-635.302 -3.622 0
-633.667 -3.64126 0
-632.034 -3.65805 0
-630.4 -3.67273 0
-628.768 -3.68417 0
-627.134 -3.70007 0
-625.502 -3.71045 0
-623.871 -3.72083 0
-622.237 -3.73635 0
-620.606 -3.74531 0
-618.971 -3.75237 0
-617.339 -3.75701 0
-615.707 -3.76313 0
-614.073 -3.76947 0
-612.44 -3.77606 0
-610.805 -3.77971 0
-609.173 -3.78365 0
-607.54 -3.78572 0
-605.907 -3.78413 0
-604.273 -3.78768 0
-602.638 -3.78759 0
-601.005 -3.78551 0
-599.372 -3.78491 0
-597.738 -3.78184 0
-596.104 -3.77947 0
-594.468 -3.77791 0
-592.833 -3.77356 0
-591.2 -3.76578 0
-589.564 -3.76302 0
-587.929 -3.75519 0
-586.295 -3.74538 0
-584.659 -3.73847 0
-583.019 -3.73334 0
-581.385 -3.725 0
-579.75 -3.71132 0
-578.115 -3.70299 0
-576.483 -3.69564 0
-574.851 -3.68316 0
-573.213 -3.67482 0
-571.576 -3.65919 0
-569.938 -3.64597 0
-568.301 -3.63565 0
-566.663 -3.62391 0
-565.029 -3.61413 0
-563.388 -3.60207 0
-561.752 -3.58847 0
-560.117 -3.57104 0
-558.478 -3.55533 0
-556.84 -3.54474 0
-555.203 -3.53185 0
-553.563 -3.51578 0
-551.927 -3.50232 0
-550.292 -3.48936 0
-548.651 -3.47368 0
-547.012 -3.46084 0
-545.372 -3.44402 0
-543.735 -3.4324 0
-542.095 -3.41957 0
-540.458 -3.40592 0
-538.823 -3.39306 0
-537.185 -3.37909 0
-535.542 -3.36586 0
-533.902 -3.35409 0
-532.265 -3.33964 0
-530.626 -3.32457 0
-528.987 -3.3124 0
-527.349 -3.30104 0
-525.708 -3.28919 0
-524.069 -3.27804 0
-522.431 -3.26351 0
-520.793 -3.25676 0
-519.153 -3.23972 0
-517.512 -3.22626 0
-515.871 -3.21641 0
-514.229 -3.20589 0
-512.59 -3.1967 0
-510.953 -3.18182 0
-509.315 -3.17329 0
-507.678 -3.16317 0
-506.04 -3.15456 0
-504.398 -3.14511 0
-502.76 -3.13481 0
-501.121 -3.12619 0
-499.481 -3.11595 0
-497.841 -3.10586 0
-496.201 -3.09623 0
-494.559 -3.08766 0
-492.918 -3.08392 0
-491.279 -3.0775 0
-489.643 -3.06943 0
-488.003 -3.06551 0
-486.361 -3.05898 0
-484.722 -3.05442 0
-483.085 -3.04837 0
-481.443 -3.0408 0
-479.801 -3.03293 0
-478.162 -3.03112 0
-476.524 -3.02913 0
-474.883 -3.02866 0
-473.242 -3.02672 0
-471.603 -3.01912 0
-469.963 -3.01596 0
-468.325 -3.01205 0
-466.685 -3.00997 0
-465.05 -3.00825 0
-463.407 -3.00935 0
-461.772 -3.00837 0
-460.13 -3.00893 0
-458.492 -3.01039 0
-456.848 -3.00564 0
-455.209 -3.00689 0
-453.57 -3.00657 0
-451.927 -3.01205 0
-450.288 -3.01243 0
-448.649 -3.00903 0
-447.01 -3.01187 0
-445.374 -3.01184 0
-443.737 -3.01398 0
-442.096 -3.01612 0
-440.459 -3.01516 0
-438.823 -3.01955 0
-437.183 -3.025 0
-435.542 -3.02122 0
-433.901 -3.02646 0
-432.262 -3.02526 0
-430.62 -3.03378 0
-428.982 -3.03496 0
-427.342 -3.03886 0
-425.704 -3.04258 0
-424.064 -3.04748 0
-422.425 -3.04881 0
-420.789 -3.05154 0
-419.147 -3.05444 0
-417.51 -3.06687 0
-415.869 -3.06778 0
-414.231 -3.07101 0
-412.593 -3.08142 0
-410.954 -3.08271 0
-409.316 -3.08432 0
-407.674 -3.08845 0
-406.037 -3.09407 0
-404.401 -3.09828 0
-402.759 -3.10499 0
-401.121 -3.10382 0
-399.487 -3.10823 0
-397.846 -3.11329 0
-396.206 -3.12305 0
-394.565 -3.12393 0
-392.927 -3.13233 0
-391.293 -3.13554 0
-389.654 -3.13454 0
-388.02 -3.13821 0
-386.384 -3.14549 0
-384.747 -3.15627 0
-383.108 -3.1638 0
-381.471 -3.16411 0
-379.836 -3.16507 0
-378.196 -3.17234 0
-376.559 -3.16849 0
-374.921 -3.17749 0
-373.282 -3.18098 0
-371.643 -3.18422 0
-370.005 -3.18734 0
-368.368 -3.19574 0
-366.73 -3.20109 0
-365.096 -3.2062 0
-363.46 -3.20921 0
-361.82 -3.20924 0
-360.182 -3.2144 0
-358.546 -3.21722 0
-356.908 -3.22012 0
-355.273 -3.22655 0
-353.636 -3.23259 0
-351.998 -3.23792 0
-350.363 -3.23772 0
-348.723 -3.24237 0
-347.086 -3.2441 0
-345.447 -3.24564 0
-343.808 -3.24813 0
-342.172 -3.2545 0
-340.538 -3.25623 0
-338.899 -3.25242 0
-337.262 -3.25761 0
-335.624 -3.26113 0
-333.981 -3.26113 0
-332.346 -3.26138 0
-330.71 -3.26661 0
-329.075 -3.26867 0
-327.432 -3.271 0
-325.793 -3.27386 0
-324.154 -3.27882 0
-322.521 -3.28093 0
-320.884 -3.28553 0
-319.243 -3.28598 0
-317.609 -3.28529 0
-315.972 -3.28442 0
-314.335 -3.28496 0
-312.699 -3.28396 0
-311.065 -3.28951 0
-309.427 -3.29145 0
-307.791 -3.29534 0
-306.154 -3.29491 0
-304.514 -3.29759 0
-302.875 -3.29848 0
-301.24 -3.29957 0
-299.605 -3.29631 0
-297.964 -3.29595 0
-296.326 -3.3013 0
-294.688 -3.30088 0
-293.049 -3.30443 0
-291.41 -3.29951 0
-289.777 -3.29557 0
-288.143 -3.2996 0
-286.505 -3.30169 0
-284.869 -3.30734 0
-283.233 -3.30482 0
-281.595 -3.30211 0
-279.955 -3.30157 0
-278.317 -3.30276 0
-276.677 -3.30698 0
-275.039 -3.30567 0
-273.402 -3.30561 0
-271.768 -3.30334 0
-270.133 -3.30336 0
-268.494 -3.30314 0
-266.856 -3.30261 0
-265.219 -3.30299 0
-263.587 -3.29959 0
-261.947 -3.30328 0
-260.309 -3.30498 0
-258.667 -3.29914 0
-257.027 -3.29794 0
-255.392 -3.29755 0
-253.759 -3.2969 0
-252.117 -3.29277 0
-250.481 -3.29205 0
-248.846 -3.29891 0
-247.21 -3.29402 0
-245.57 -3.29061 0
-243.931 -3.29128 0
-242.293 -3.29289 0
-240.656 -3.29483 0
-239.017 -3.29196 0
-237.38 -3.29093 0
-235.745 -3.28453 0
-234.107 -3.27935 0
-232.471 -3.27546 0
-230.83 -3.27568 0
-229.195 -3.27864 0
-227.557 -3.27652 0
-225.919 -3.27742 0
-224.282 -3.27685 0
-222.649 -3.27393 0
-221.012 -3.27221 0
-219.372 -3.27367 0
-217.737 -3.27131 0
-216.103 -3.27429 0
-214.467 -3.26953 0
-212.827 -3.2696 0
-211.188 -3.26686 0
-209.548 -3.26702 0
-207.911 -3.26752 0
-206.274 -3.26679 0
-204.638 -3.26943 0
-203 -3.26332 0
-201.358 -3.25743 0
-199.72 -3.25417 0
-198.082 -3.25218 0
-196.446 -3.25157 0
-194.81 -3.25243 0
-193.172 -3.25191 0
-191.541 -3.24541 0
-189.906 -3.24937 0
-188.262 -3.25521 0
-186.621 -3.25493 0
-184.985 -3.25312 0
-183.348 -3.24535 0
-181.715 -3.24296 0
-180.075 -3.24394 0
-178.436 -3.23949 0
-176.802 -3.23799 0
-175.165 -3.24011 0
-173.524 -3.23864 0
-171.889 -3.23836 0
-170.253 -3.23876 0
-168.615 -3.23695 0
-166.975 -3.23889 0
-165.338 -3.23254 0
-163.698 -3.23232 0
-162.062 -3.23422 0
-160.425 -3.23112 0
-158.789 -3.23419 0
-157.155 -3.2283 0
-155.519 -3.22311 0
-153.881 -3.22762 0
-152.242 -3.23068 0
-150.605 -3.23109 0
-148.969 -3.23253 0
-147.331 -3.23477 0
-145.694 -3.23028 0
-144.056 -3.23267 0
-142.419 -3.23552 0
-140.784 -3.22795 0
-139.146 -3.2331 0
-137.505 -3.22818 0
-135.866 -3.22954 0
-134.232 -3.22478 0
-132.594 -3.22414 0
-130.962 -3.22772 0
-129.323 -3.2296 0
-127.683 -3.23217 0
-126.051 -3.23135 0
-124.416 -3.22777 0
-122.776 -3.23486 0
-121.136 -3.22798 0
-119.497 -3.23091 0
-117.86 -3.23165 0
-116.224 -3.23252 0
-114.589 -3.22835 0
-112.954 -3.23127 0
-111.315 -3.23059 0
-109.679 -3.23733 0
-108.038 -3.23779 0
-106.406 -3.23961 0
-104.768 -3.23964 0
-103.127 -3.23584 0
-101.49 -3.23926 0
-99.8507 -3.23694 0
-98.2161 -3.23595 0
-96.5771 -3.2394 0
-94.9358 -3.2414 0
-93.2999 -3.24416 0
-91.6646 -3.2455 0
-90.0254 -3.24637 0
-88.3887 -3.24767 0
-86.7541 -3.24982 0
-85.1207 -3.24575 0
-83.4811 -3.25075 0
-81.8417 -3.24421 0
-80.2075 -3.24262 0
-78.572 -3.24147 0
-76.9306 -3.2438 0
-75.2896 -3.2411 0
-73.6529 -3.2482 0
-72.0138 -3.25191 0
-70.3738 -3.24778 0
-68.7443 -3.24549 0
-67.1116 -3.24459 0
-65.4704 -3.24417 0
-63.8304 -3.2405 0
-62.195 -3.24086 0
-60.5613 -3.24544 0
-58.9256 -3.24832 0
-57.2891 -3.24618 0
-55.6513 -3.24645 0
-54.0158 -3.24305 0
-52.376 -3.24766 0
-50.7348 -3.24702 0
-49.1008 -3.24828 0
-47.4655 -3.24984 0
-45.8282 -3.25073 0
-44.1889 -3.24943 0
-42.553 -3.24621 0
-40.9139 -3.24913 0
-39.2771 -3.24843 0
-37.6457 -3.24529 0
-36.0069 -3.25134 0
-34.3701 -3.24828 0
-32.736 -3.25157 0
-31.1002 -3.25305 0
-29.4621 -3.25431 0
-27.8226 -3.25042 0
-26.1859 -3.24941 0
-24.5518 -3.24811 0
-22.9148 -3.24639 0
-21.2796 -3.2435 0
-19.6424 -3.24778 0
-18.0072 -3.24749 0
-16.3695 -3.24841 0
-14.734 -3.24885 0
-13.0915 -3.2489 0
-11.4595 -3.2504 0
-9.82005 -3.2532 0
-8.18173 -3.24735 0
-6.54745 -3.24968 0
-4.90997 -3.24926 0
-3.27437 -3.24748 0
-1.63648 -3.25006 0
0 -3.25232 0
-1104.94 122.475 0
-1104.78 111.144 0
-1104.78 100.163 0
-1104.74 89.4161 0
-1104.65 78.9248 0
-1104.47 68.7437 0
-1104.21 58.9217 0
-1103.88 49.5363 0
-1103.49 40.6491 0
-1103.05 32.2902 0
-1102.55 24.4725 0
-1102.01 17.2391 0
-1101.42 10.5891 0
-1100.83 4.48708 0
-1100.31 -1.15933 0
-1099.84 -6.39512 0
-1099.4 -11.2666 0
-1098.93 -15.7916 0
-1098.42 -19.9496 0
-1097.89 -23.7199 0
-1097.33 -27.099 0
-1096.76 -30.0871 0
-1096.18 -32.6871 0
-1095.57 -34.9154 0
-1094.96 -36.7765 0
-1094.33 -38.3223 0
-1093.7 -39.5338 0
-1093.04 -40.4489 0
-1092.37 -41.1001 0
-1091.66 -41.5093 0
-1090.93 -41.6826 0
-1090.17 -41.6591 0
-1089.37 -41.4478 0
-1088.54 -41.0671 0
-1087.67 -40.5302 0
-1086.76 -39.8544 0
-1085.81 -39.049 0
-1084.83 -38.1288 0
-1083.8 -37.1091 0
-1082.74 -36.0038 0
-1081.64 -34.8177 0
-1080.51 -33.564 0
-1079.34 -32.2475 0
-1078.13 -30.8863 0
-1076.89 -29.482 0
-1075.61 -28.0454 0
-1074.31 -26.5818 0
-1072.97 -25.1006 0
-1071.61 -23.61 0
-1070.21 -22.1081 0
-1068.78 -20.61 0
-1067.33 -19.1157 0
-1065.86 -17.6274 0
-1064.36 -16.1565 0
-1062.83 -14.6983 0
-1061.29 -13.2623 0
-1059.72 -11.8484 0
-1058.13 -10.4641 0
-1056.52 -9.11044 0
-1054.9 -7.78871 0
-1053.26 -6.49975 0
-1051.6 -5.24762 0
-1049.93 -4.03854 0
-1048.24 -2.86356 0
-1046.54 -1.72925 0
-1044.83 -0.637878 0
-1043.11 0.414677 0
-1041.37 1.41788 0
-1039.63 2.37769 0
-1037.88 3.29305 0
-1036.11 4.16154 0
-1034.35 4.9857 0
-1032.57 5.76375 0
-1030.79 6.49696 0
-1029.01 7.18329 0
-1027.22 7.82337 0
-1025.43 8.41639 0
-1023.63 8.96672 0
-1021.83 9.47362 0
-1020.03 9.93557 0
-1018.23 10.3572 0
-1016.43 10.7312 0
-1014.62 11.0688 0
-1012.82 11.3618 0
-1011.02 11.6147 0
-1009.21 11.8288 0
-1007.41 12.0027 0
-1005.61 12.1414 0
-1003.82 12.2429 0
-1002.02 12.3089 0
-1000.23 12.3445 0
-998.436 12.3449 0
-996.65 12.3123 0
-994.867 12.2455 0
-993.087 12.1554 0
-991.312 12.0359 0
-989.538 11.8898 0
-987.771 11.7156 0
-986.009 11.5199 0
-984.251 11.2999 0
-982.5 11.0581 0
-980.75 10.7971 0
-979.007 10.5146 0
-977.268 10.2157 0
-975.536 9.8994 0
-973.807 9.56639 0