<?xml version="1.0"?>
<VTKFile type="StructuredGrid"  version="0.1" byte_order="LittleEndian" compressor="vtkZLibDataCompressor">
  <StructuredGrid WholeExtent="0 700 0 30 0 0">
    <Piece Extent="0 700 0 30 0 0">
      <PointData Vectors="Velocity">
        <DataArray type="Float32" Name="Velocity" NumberOfComponents="3" format="ascii">
-1087.02 151.705 0
-1087.3 139.349 0
-1087.63 127.107 0
-1087.99 115.075 0
-1088.36 103.279 0
-1088.78 91.7815 0
-1089.25 80.6409 0
-1089.78 69.9525 0
-1090.33 59.739 0
-1090.9 50.0343 0
-1091.45 40.8602 0
-1092.01 32.2219 0
-1092.55 24.1484 0
-1093.04 16.6712 0
-1093.48 9.77115 0
-1093.76 3.4091 0
-1094.02 -2.58851 0
-1094.28 -8.24464 0
-1094.48 -13.5385 0
-1094.69 -18.4744 0
-1094.93 -23.0225 0
-1095.16 -27.1561 0
-1095.35 -30.9077 0
-1095.53 -34.2748 0
-1095.68 -37.2622 0
-1095.78 -39.8818 0
-1095.85 -42.1674 0
-1095.88 -44.1157 0
-1095.85 -45.7616 0
-1095.77 -47.1031 0
-1095.63 -48.1861 0
-1095.43 -49.01 0
-1095.17 -49.6041 0
-1094.84 -49.967 0
-1094.46 -50.1321 0
-1094.02 -50.1032 0
-1093.51 -49.9012 0
-1092.94 -49.5335 0
-1092.31 -49.0231 0
-1091.62 -48.3668 0
-1090.87 -47.5848 0
-1090.06 -46.6911 0
-1089.21 -45.6938 0
-1088.29 -44.6046 0
-1087.32 -43.4253 0
-1086.3 -42.1673 0
-1085.23 -40.8556 0
-1084.11 -39.4743 0
-1082.94 -38.0405 0
-1081.73 -36.5661 0
-1080.48 -35.0525 0
-1079.18 -33.5089 0
-1077.84 -31.9432 0
-1076.46 -30.3561 0
-1075.05 -28.7593 0
-1073.6 -27.1555 0
-1072.11 -25.5465 0
-1070.59 -23.9415 0
-1069.05 -22.3464 0
-1067.48 -20.7608 0
-1065.87 -19.1897 0
-1064.24 -17.6299 0
-1062.58 -16.0968 0
-1060.9 -14.5813 0
-1059.2 -13.0965 0
-1057.48 -11.6362 0
-1055.74 -10.2053 0
-1053.98 -8.81008 0
-1052.2 -7.4469 0
-1050.41 -6.1185 0
-1048.6 -4.82728 0
-1046.78 -3.57935 0
-1044.94 -2.36668 0
-1043.09 -1.19581 0
-1041.24 -0.0725222 0
-1039.37 1.01847 0
-1037.5 2.05692 0
-1035.61 3.05882 0
-1033.72 4.01278 0
-1031.83 4.92156 0
-1029.93 5.78762 0
-1028.02 6.61103 0
-1026.11 7.38557 0
-1024.2 8.11742 0
-1022.27 8.80478 0
-1020.36 9.44633 0
-1018.44 10.0444 0
-1016.51 10.5996 0
-1014.59 11.1108 0
-1012.67 11.581 0
-1010.75 12.0056 0
-1008.83 12.3889 0
-1006.92 12.7378 0
-1005 13.0388 0
-1003.09 13.3038 0
-1001.18 13.5259 0
-999.279 13.7118 0
-997.375 13.86 0
-995.478 13.9719 0
-993.584 14.0477 0
-991.698 14.0877 0
-989.819 14.0925 0
-987.942 14.0705 0
-986.073 14.0135 0
-984.21 13.9259 0
-982.352 13.8085 0
-980.501 13.6635 0
-978.654 13.4927 0
-976.816 13.293 0
-974.982 13.0689 0
-973.155 12.8252 0
-971.338 12.5506 0
-969.532 12.2603 0
-967.728 11.9477 0
-965.935 11.6206 0
-964.149 11.2669 0
-962.369 10.9027 0
-960.595 10.5189 0
-958.829 10.1248 0
-957.069 9.71472 0
-955.319 9.29088 0
-953.576 8.85757 0
-951.84 8.41568 0
-950.107 7.96134 0
-948.384 7.49795 0
-946.668 7.02653 0
-944.957 6.54773 0
-943.254 6.06815 0
-941.558 5.58444 0
-939.867 5.0971 0
-938.184 4.60648 0
-936.505 4.11449 0
-934.832 3.61966 0
-933.162 3.12503 0
-931.505 2.63429 0
-929.849 2.1411 0
-928.2 1.65396 0
-926.556 1.17153 0
-924.916 0.692156 0
-923.285 0.212445 0
-921.655 -0.25717 0
-920.027 -0.721722 0
-918.405 -1.17848 0
-916.784 -1.6305 0
-915.173 -2.07272 0
-913.562 -2.50942 0
-911.955 -2.93956 0
-910.353 -3.35639 0
-908.754 -3.76444 0
-907.157 -4.16025 0
-905.56 -4.54757 0
-903.97 -4.92837 0
-902.381 -5.29362 0
-900.789 -5.65191 0
-899.206 -5.9921 0
-897.622 -6.32358 0
-896.04 -6.64384 0
-894.459 -6.94959 0
-892.877 -7.24851 0
-891.3 -7.53538 0
-889.721 -7.80525 0
-888.144 -8.06651 0
-886.565 -8.31122 0
-884.99 -8.55151 0
-883.417 -8.77287 0
-881.838 -8.98628 0
-880.265 -9.1861 0
-878.689 -9.36869 0
-877.115 -9.54034 0
-875.536 -9.70469 0
-873.959 -9.85251 0
-872.381 -9.9901 0
-870.804 -10.1142 0
-869.226 -10.2284 0
-867.648 -10.3301 0
-866.069 -10.4208 0
-864.487 -10.5016 0
-862.906 -10.5698 0
-861.323 -10.6275 0
-859.738 -10.6754 0
-858.153 -10.7106 0
-856.568 -10.7405 0
-854.977 -10.7576 0
-853.391 -10.7654 0
-851.801 -10.7636 0
-850.207 -10.7515 0
-848.612 -10.7346 0
-847.017 -10.7042 0
-845.421 -10.672 0
-843.822 -10.6293 0
-842.218 -10.5762 0
-840.617 -10.5206 0
-839.013 -10.455 0
-837.409 -10.3833 0
-835.802 -10.3051 0
-834.19 -10.2206 0
-832.578 -10.1271 0
-830.963 -10.0337 0
-829.347 -9.93075 0
-827.73 -9.82504 0
-826.112 -9.71759 0
-824.492 -9.60572 0
-822.87 -9.48959 0
-821.245 -9.3659 0
-819.62 -9.24 0
-817.991 -9.111 0
-816.36 -8.98441 0
-814.727 -8.8462 0
-813.094 -8.7148 0
-811.461 -8.57026 0
-809.824 -8.43098 0
-808.183 -8.28903 0
-806.542 -8.14393 0
-804.901 -8.00053 0
-803.259 -7.85365 0
-801.613 -7.70659 0
-799.968 -7.56064 0
-798.319 -7.41638 0
-796.672 -7.27106 0
-795.022 -7.12063 0
-793.37 -6.97815 0
-791.715 -6.83153 0
-790.058 -6.69013 0
-788.403 -6.55025 0
-786.747 -6.4066 0
-785.088 -6.26705 0
-783.428 -6.12795 0
-781.768 -5.99124 0
-780.111 -5.85811 0
-778.447 -5.72268 0
-776.783 -5.59224 0
-775.118 -5.46378 0
-773.453 -5.33733 0
-771.789 -5.21062 0
-770.122 -5.08774 0
-768.454 -4.96858 0
-766.785 -4.84997 0
-765.115 -4.73715 0
-763.448 -4.62471 0
-761.779 -4.51465 0
-760.107 -4.4071 0
-758.434 -4.30869 0
-756.762 -4.20961 0
-755.09 -4.11566 0
-753.418 -4.02547 0
-751.745 -3.93716 0
-750.073 -3.84982 0
-748.4 -3.76932 0
-746.727 -3.68735 0
-745.053 -3.61697 0
-743.376 -3.54334 0
-741.704 -3.47335 0
-740.032 -3.41096 0
-738.36 -3.34789 0
-736.684 -3.28754 0
-735.007 -3.23325 0
-733.334 -3.18686 0
-731.66 -3.13896 0
-729.988 -3.09449 0
-728.312 -3.05266 0
-726.641 -3.01898 0
-724.967 -2.98433 0
-723.296 -2.952 0
-721.625 -2.92588 0
-719.948 -2.90073 0
-718.276 -2.87809 0
-716.598 -2.85815 0
-714.928 -2.8435 0
-713.256 -2.83245 0
-711.587 -2.82475 0
-709.918 -2.81575 0
-708.248 -2.814 0
-706.574 -2.81208 0
-704.903 -2.81274 0
-703.235 -2.81994 0
-701.565 -2.82643 0
-699.898 -2.83835 0
-698.233 -2.85109 0
-696.566 -2.86705 0
-694.898 -2.88516 0
-693.232 -2.9043 0
-691.568 -2.92446 0
-689.9 -2.94635 0
-688.237 -2.97612 0
-686.571 -3.00365 0
-684.906 -3.03432 0
-683.243 -3.06554 0
-681.579 -3.09493 0
-679.915 -3.1311 0
-678.251 -3.16894 0
-676.591 -3.20007 0
-674.928 -3.24024 0
-673.268 -3.28146 0
-671.608 -3.32169 0
-669.951 -3.36365 0
-668.287 -3.40823 0
-666.63 -3.45331 0
-664.971 -3.50197 0
-663.314 -3.54805 0
-661.659 -3.59429 0
-660 -3.64061 0
-658.346 -3.68829 0
-656.689 -3.73645 0
-655.028 -3.78615 0
-653.377 -3.83442 0
-651.721 -3.88516 0
-650.068 -3.93736 0
-648.416 -3.98738 0
-646.761 -4.03851 0
-645.109 -4.08909 0
-643.458 -4.13963 0
-641.809 -4.18997 0
-640.158 -4.2421 0
-638.505 -4.29599 0
-636.855 -4.34065 0
-635.204 -4.39298 0
-633.555 -4.44291 0
-631.909 -4.4947 0
-630.258 -4.54341 0
-628.606 -4.59267 0
-626.958 -4.63635 0
-625.308 -4.68361 0
-623.659 -4.72831 0
-622.013 -4.77788 0
-620.365 -4.8233 0
-618.718 -4.86684 0
-617.073 -4.91384 0
-615.422 -4.958 0
-613.776 -4.99529 0
-612.127 -5.03833 0
-610.484 -5.08231 0
-608.84 -5.12654 0
-607.194 -5.16658 0
-605.551 -5.20592 0
-603.906 -5.24455 0
-602.261 -5.28128 0
-600.611 -5.31427 0
-598.965 -5.35061 0
-597.322 -5.38559 0
-595.679 -5.41523 0
-594.034 -5.44438 0
-592.389 -5.47448 0
-590.747 -5.50841 0
-589.101 -5.5353 0
-587.457 -5.55915 0
-585.815 -5.58482 0
-584.168 -5.60783 0
-582.525 -5.63335 0
-580.878 -5.65433 0
-579.239 -5.6731 0
-577.591 -5.69763 0
-575.942 -5.72156 0
-574.3 -5.73967 0
-572.652 -5.75479 0
-571.004 -5.77755 0
-569.36 -5.79081 0
-567.716 -5.8071 0
-566.072 -5.8173 0
-564.43 -5.83069 0
-562.785 -5.84197 0
-561.14 -5.85054 0
-559.497 -5.85821 0
-557.852 -5.86459 0
-556.208 -5.8726 0
-554.563 -5.87522 0
-552.914 -5.88291 0
-551.27 -5.88391 0
-549.624 -5.89018 0
-547.977 -5.89413 0
-546.33 -5.89452 0
-544.684 -5.89654 0
-543.041 -5.89966 0
-541.399 -5.89719 0
-539.75 -5.89423 0
-538.101 -5.89093 0
-536.457 -5.88621 0
-534.811 -5.88617 0
-533.162 -5.88132 0
-531.518 -5.87163 0
-529.869 -5.87229 0
-528.226 -5.85919 0
-526.582 -5.85408 0
-524.932 -5.84253 0
-523.285 -5.83526 0
-521.633 -5.82807 0
-519.986 -5.82266 0
-518.337 -5.81034 0
-516.691 -5.79684 0
-515.044 -5.7833 0
-513.393 -5.77841 0
-511.744 -5.76458 0
-510.096 -5.74797 0
-508.45 -5.73548 0
-506.795 -5.72168 0
-505.152 -5.71079 0
-503.507 -5.69747 0
-501.858 -5.68131 0
-500.205 -5.67158 0
-498.553 -5.65314 0
-496.906 -5.64064 0
-495.262 -5.62828 0
-493.606 -5.61224 0
-491.96 -5.59348 0
-490.311 -5.58096 0
-488.664 -5.56023 0
-487.011 -5.54602 0
-485.361 -5.52762 0
-483.712 -5.50624 0
-482.057 -5.49106 0
-480.401 -5.47347 0
-478.752 -5.45987 0
-477.102 -5.44333 0
-475.456 -5.42107 0
-473.803 -5.40408 0
-472.152 -5.39154 0
-470.502 -5.37847 0
-468.852 -5.3613 0
-467.197 -5.343 0
-465.54 -5.32298 0
-463.888 -5.3158 0
-462.242 -5.3056 0
-460.59 -5.28598 0
-458.937 -5.26982 0
-457.287 -5.25586 0
-455.635 -5.24109 0
-453.982 -5.22677 0
-452.332 -5.21025 0
-450.677 -5.19351 0
-449.026 -5.17628 0
-447.376 -5.16265 0
-445.723 -5.14706 0
-444.066 -5.13185 0
-442.416 -5.12263 0
-440.762 -5.10905 0
-439.104 -5.09821 0
-437.449 -5.08439 0
-435.8 -5.07691 0
-434.147 -5.06523 0
-432.492 -5.04984 0
-430.838 -5.03641 0
-429.187 -5.02372 0
-427.537 -5.01704 0
-425.884 -5.00714 0
-424.235 -4.98955 0
-422.578 -4.98165 0
-420.929 -4.97157 0
-419.274 -4.96441 0
-417.613 -4.95322 0
-415.96 -4.95133 0
-414.308 -4.94509 0
-412.654 -4.93426 0
-411.005 -4.9292 0
-409.354 -4.91231 0
-407.704 -4.90573 0
-406.048 -4.89833 0
-404.393 -4.89849 0
-402.737 -4.89284 0
-401.084 -4.88438 0
-399.43 -4.87979 0
-397.776 -4.87414 0
-396.127 -4.87131 0
-394.472 -4.86428 0
-392.819 -4.85851 0
-391.17 -4.85536 0
-389.514 -4.85661 0
-387.856 -4.84969 0
-386.205 -4.84727 0
-384.551 -4.84221 0
-382.905 -4.84018 0
-381.252 -4.84012 0
-379.601 -4.83389 0
-377.947 -4.83426 0
-376.294 -4.83166 0
-374.645 -4.83246 0
-372.993 -4.83004 0
-371.335 -4.82436 0
-369.68 -4.82637 0
-368.029 -4.82373 0
-366.381 -4.82516 0
-364.726 -4.82152 0
-363.075 -4.82049 0
-361.431 -4.82117 0
-359.769 -4.81793 0
-358.117 -4.8214 0
-356.467 -4.82069 0
-354.815 -4.82434 0
-353.165 -4.83092 0
-351.509 -4.83158 0
-349.858 -4.84029 0
-348.206 -4.83498 0
-346.558 -4.83954 0
-344.906 -4.84049 0
-343.255 -4.84149 0
-341.604 -4.84214 0
-339.954 -4.85023 0
-338.304 -4.85118 0
-336.648 -4.84903 0
-334.995 -4.853 0
-333.345 -4.85611 0
-331.692 -4.85913 0
-330.042 -4.86228 0
-328.393 -4.86764 0
-326.737 -4.87562 0
-325.087 -4.87205 0
-323.439 -4.8761 0
-321.783 -4.87515 0
-320.131 -4.88288 0
-318.478 -4.88918 0
-316.83 -4.89596 0
-315.181 -4.89412 0
-313.525 -4.89831 0
-311.874 -4.90282 0
-310.223 -4.90329 0
-308.568 -4.90882 0
-306.917 -4.91635 0
-305.272 -4.92519 0
-303.621 -4.92573 0
-301.968 -4.93502 0
-300.311 -4.93626 0
-298.665 -4.94299 0
-297.014 -4.94513 0
-295.369 -4.94504 0
-293.719 -4.94732 0
-292.066 -4.95194 0
-290.41 -4.95143 0
-288.76 -4.95893 0
-287.113 -4.96458 0
-285.463 -4.96958 0
-283.811 -4.97461 0
-282.156 -4.97755 0
-280.509 -4.98777 0
-278.857 -4.98473 0
-277.211 -4.98988 0
-275.557 -4.99583 0
-273.91 -5.00259 0
-272.259 -5.00701 0
-270.608 -5.01437 0
-268.965 -5.02136 0
-267.31 -5.02074 0
-265.66 -5.01748 0
-264.011 -5.02022 0
-262.361 -5.02633 0
-260.712 -5.02715 0
-259.056 -5.02989 0
-257.407 -5.03252 0
-255.75 -5.03996 0
-254.105 -5.03936 0
-252.451 -5.04194 0
-250.805 -5.04606 0
-249.152 -5.05537 0
-247.507 -5.05281 0
-245.855 -5.05355 0
-244.206 -5.05905 0
-242.555 -5.05706 0
-240.906 -5.06231 0
-239.254 -5.05469 0
-237.603 -5.06771 0
-235.96 -5.07025 0
-234.311 -5.06349 0
-232.658 -5.0658 0
-231.008 -5.06414 0
-229.36 -5.06354 0
-227.713 -5.06207 0
-226.057 -5.06657 0
-224.408 -5.07114 0
-222.756 -5.07236 0
-221.112 -5.07205 0
-219.465 -5.07627 0
-217.807 -5.07332 0
-216.159 -5.07354 0
-214.511 -5.08363 0
-212.859 -5.07449 0
-211.212 -5.06662 0
-209.556 -5.06583 0
-207.908 -5.07229 0
-206.261 -5.07645 0
-204.613 -5.06562 0
-202.957 -5.07144 0
-201.305 -5.07381 0
-199.657 -5.07594 0
-198.011 -5.06761 0
-196.357 -5.06206 0
-194.703 -5.06286 0
-193.057 -5.06528 0
-191.409 -5.06085 0
-189.752 -5.05441 0
-188.103 -5.06144 0
-186.457 -5.05915 0
-184.811 -5.06227 0
-183.159 -5.06798 0
-181.501 -5.06143 0
-179.855 -5.0623 0
-178.199 -5.05732 0
-176.547 -5.05395 0
-174.904 -5.06151 0
-173.253 -5.05365 0
-171.605 -5.05506 0
-169.956 -5.05492 0
-168.308 -5.05172 0
-166.654 -5.05072 0
-165.01 -5.0509 0
-163.355 -5.04844 0
-161.706 -5.04925 0
-160.053 -5.0363 0
-158.404 -5.0364 0
-156.76 -5.038 0
-155.114 -5.03816 0
-153.457 -5.03908 0
-151.805 -5.03342 0
-150.154 -5.03364 0
-148.502 -5.03372 0
-146.852 -5.02871 0
-145.204 -5.02785 0
-143.556 -5.02391 0
-141.912 -5.01408 0
-140.267 -5.01826 0
-138.614 -5.01292 0
-136.963 -5.01236 0
-135.31 -5.00629 0
-133.657 -5.01058 0
-132.008 -5.0083 0
-130.36 -5.00596 0
-128.71 -5.00364 0
-127.06 -4.99684 0
-125.407 -4.99116 0
-123.758 -4.98989 0
-122.111 -4.98415 0
-120.459 -4.9823 0
-118.811 -4.98501 0
-117.159 -4.979 0
-115.509 -4.98018 0
-113.853 -4.97353 0
-112.202 -4.97202 0
-110.551 -4.97237 0
-108.904 -4.97572 0
-107.254 -4.97175 0
-105.608 -4.97204 0
-103.962 -4.9646 0
-102.311 -4.96605 0
-100.66 -4.95776 0
-99.0093 -4.95925 0
-97.3598 -4.95867 0
-95.7075 -4.9519 0
-94.0618 -4.95228 0
-92.4064 -4.94597 0
-90.759 -4.94091 0
-89.1076 -4.94353 0
-87.4617 -4.9482 0
-85.8129 -4.94615 0
-84.1614 -4.94244 0
-82.5124 -4.94053 0
-80.8611 -4.93234 0
-79.2111 -4.92741 0
-77.5644 -4.92681 0
-75.9128 -4.92232 0
-74.2606 -4.91768 0
-72.6139 -4.91692 0
-70.9586 -4.91528 0
-69.3053 -4.91703 0
-67.6537 -4.91593 0
-66.0074 -4.91531 0
-64.3529 -4.90432 0
-62.7058 -4.9125 0
-61.0606 -4.90789 0
-59.4048 -4.90327 0
-57.7559 -4.90025 0
-56.1064 -4.89845 0
-54.452 -4.8974 0
-52.8051 -4.89255 0
-51.1543 -4.9014 0
-49.504 -4.89455 0
-47.8567 -4.89223 0
-46.2074 -4.89464 0
-44.5538 -4.88928 0
-42.9041 -4.88971 0
-41.2529 -4.88937 0
-39.5967 -4.88425 0
-37.9445 -4.88302 0
-36.2955 -4.88495 0
-34.6501 -4.88893 0
-33.001 -4.88125 0
-31.3568 -4.88354 0
-29.7099 -4.87994 0
-28.057 -4.87345 0
-26.406 -4.87754 0
-24.7516 -4.88099 0
-23.106 -4.88695 0
-21.4516 -4.88251 0
-19.8044 -4.88816 0
-18.1536 -4.88669 0
-16.5059 -4.88633 0
-14.8469 -4.87217 0
-13.1946 -4.87192 0
-11.5539 -4.87595 0
-9.90459 -4.87751 0
-8.25008 -4.88238 0
-6.60144 -4.87733 0
-4.95212 -4.8775 0
-3.30379 -4.88215 0
-1.65416 -4.87822 0
0 -4.87554 0
-1099.38 152.016 0
-1099.55 139.608 0
-1099.73 127.353 0
-1099.88 115.303 0
-1100.02 103.492 0
-1100.14 91.9595 0
-1100.21 80.7784 0
-1100.27 70.0459 0
-1100.32 59.7978 0
-1100.35 50.0666 0
-1100.37 40.8775 0
-1100.35 32.2392 0
-1100.28 24.1675 0
-1100.17 16.6976 0
-1100.02 9.83891 0
-1099.93 3.47866 0
-1099.85 -2.5219 0
-1099.74 -8.18226 0
-1099.63 -13.4776 0
-1099.5 -18.4136 0
-1099.33 -22.9575 0
-1099.15 -27.0965 0
-1098.96 -30.8368 0
-1098.76 -34.1949 0
-1098.53 -37.1638 0
-1098.28 -39.7646 0
-1098.02 -42.0158 0
-1097.72 -43.9386 0
-1097.38 -45.5414 0
-1097.02 -46.8462 0
-1096.61 -47.8765 0
-1096.16 -48.6607 0
-1095.67 -49.1947 0
-1095.13 -49.5117 0
-1094.55 -49.6231 0
-1093.92 -49.5438 0
-1093.24 -49.2853 0
-1092.51 -48.8672 0
-1091.74 -48.295 0
-1090.92 -47.5921 0
-1090.05 -46.7615 0
-1089.13 -45.8133 0
-1088.17 -44.7684 0
-1087.17 -43.6257 0
-1086.12 -42.3975 0
-1085.02 -41.0975 0
-1083.89 -39.7389 0
-1082.72 -38.3119 0
-1081.5 -36.8357 0
-1080.25 -35.3169 0
-1078.96 -33.764 0
-1077.64 -32.1846 0
-1076.28 -30.5824 0
-1074.89 -28.9581 0
-1073.46 -27.3266 0
-1072 -25.688 0
-1070.52 -24.0498 0
-1069.01 -22.4169 0
-1067.47 -20.7907 0
-1065.91 -19.1783 0
-1064.32 -17.5791 0
-1062.7 -15.9986 0
-1061.07 -14.4404 0
-1059.42 -12.9064 0
-1057.74 -11.3998 0
-1056.05 -9.92191 0
-1054.34 -8.47369 0
-1052.61 -7.05978 0
-1050.87 -5.68141 0
-1049.11 -4.3406 0
-1047.34 -3.03636 0
-1045.56 -1.77341 0
-1043.76 -0.548175 0
-1041.96 0.63088 0
-1040.14 1.76607 0
-1038.32 2.86305 0
-1036.49 3.91071 0
-1034.65 4.91902 0
-1032.8 5.87867 0
-1030.95 6.79623 0
-1029.09 7.66869 0
-1027.23 8.49205 0
-1025.36 9.27154 0
-1023.49 10.0072 0
-1021.62 10.6944 0
-1019.75 11.3385 0
-1017.87 11.9387 0
-1015.99 12.4932 0
-1014.11 13.0035 0
-1012.23 13.4738 0
-1010.35 13.8996 0
-1008.48 14.2813 0
-1006.6 14.6231 0
-1004.73 14.9251 0
-1002.86 15.1862 0
-1000.98 15.4076 0
-999.117 15.5905 0
-997.251 15.734 0
-995.388 15.8407 0
-993.532 15.9115 0
-991.678 15.946 0
-989.828 15.9474 0
-987.986 15.9193 0
-986.147 15.8568 0
-984.314 15.7631 0
-982.484 15.641 0
-980.659 15.4897 0
-978.842 15.3125 0
-977.028 15.1079 0
-975.22 14.8774 0
-973.419 14.6252 0
-971.623 14.3466 0
-969.832 14.0504 0
-968.049 13.7309 0
-966.275 13.3916 0
-964.504 13.0362 0
-962.741 12.6633 0
-960.982 12.2741 0
-959.229 11.8727 0
-957.485 11.4575 0
-955.746 11.0277 0
-954.011 10.5859 0
-952.284 10.1369 0
-950.563 9.67786 0
-948.849 9.20697 0
-947.138 8.7298 0
-945.435 8.24529 0
-943.736 7.75901 0
-942.041 7.26953 0
-940.354 6.77459 0
-938.671 6.28 0
-936.995 5.78128 0
-935.322 5.28227 0
-933.655 4.78114 0
-931.994 4.28498 0
-930.337 3.78939 0
-928.684 3.29454 0
-927.036 2.80765 0
-925.393 2.32239 0
-923.755 1.84101 0
-922.119 1.36692 0
-920.487 0.89835 0
-918.859 0.437612 0
-917.232 -0.0164194 0
-915.611 -0.46412 0
-913.993 -0.904185 0
-912.376 -1.33546 0
-910.764 -1.75735 0
-909.153 -2.16572 0
-907.546 -2.56582 0
-905.943 -2.95839 0
-904.338 -3.33726 0
-902.737 -3.70434 0
-901.138 -4.06406 0
-899.541 -4.40839 0
-897.945 -4.74017 0
-896.351 -5.06242 0
-894.758 -5.37001 0
-893.167 -5.67092 0
-891.575 -5.95707 0
-889.984 -6.22916 0
-888.393 -6.48942 0
-886.806 -6.73633 0
-885.217 -6.97526 0
-883.629 -7.19741 0
-882.045 -7.41024 0
-880.454 -7.61023 0
-878.866 -7.79258 0
-877.278 -7.96602 0
-875.69 -8.12732 0
-874.101 -8.27718 0
-872.512 -8.4145 0
-870.923 -8.53963 0
-869.334 -8.65089 0
-867.744 -8.75264 0
-866.153 -8.84312 0
-864.561 -8.92072 0
-862.969 -8.98781 0
-861.377 -9.0451 0
-859.782 -9.09278 0
-858.186 -9.12869 0
-856.591 -9.15444 0
-854.994 -9.17071 0
-853.394 -9.17853 0
-851.795 -9.17389 0
-850.193 -9.16198 0
-848.591 -9.14114 0
-846.987 -9.11249 0
-845.383 -9.0751 0
-843.774 -9.03018 0
-842.166 -8.97882 0
-840.556 -8.92032 0
-838.946 -8.85379 0
-837.333 -8.77976 0
-835.718 -8.6997 0
-834.102 -8.61405 0
-832.484 -8.52003 0
-830.867 -8.42295 0
-829.246 -8.31903 0
-827.626 -8.21254 0
-826.004 -8.1036 0
-824.379 -7.98994 0
-822.751 -7.86943 0
-821.123 -7.74465 0
-819.492 -7.61824 0
-817.862 -7.48757 0
-816.23 -7.35744 0
-814.595 -7.21979 0
-812.958 -7.0837 0
-811.321 -6.94074 0
-809.682 -6.79855 0
-808.04 -6.6555 0
-806.4 -6.50969 0
-804.758 -6.3635 0
-803.115 -6.21488 0
-801.467 -6.06781 0
-799.82 -5.92109 0
-798.174 -5.77563 0
-796.526 -5.62696 0
-794.877 -5.4781 0
-793.225 -5.33054 0
-791.57 -5.18529 0
-789.917 -5.04394 0
-788.262 -4.90113 0
-786.605 -4.75861 0
-784.948 -4.61609 0
-783.291 -4.4769 0
-781.636 -4.3409 0
-779.976 -4.20317 0
-778.315 -4.06799 0
-776.653 -3.93565 0
-774.993 -3.80671 0
-773.33 -3.67778 0
-771.665 -3.55174 0
-770 -3.42916 0
-768.336 -3.30545 0
-766.669 -3.18967 0
-765.003 -3.0752 0
-763.335 -2.96311 0
-761.67 -2.85242 0
-760.004 -2.74633 0
-758.335 -2.64563 0
-756.667 -2.5459 0
-754.998 -2.45114 0
-753.328 -2.35837 0
-751.658 -2.27347 0
-749.989 -2.18472 0
-748.319 -2.10341 0
-746.65 -2.02343 0
-744.98 -1.94842 0
-743.308 -1.87787 0
-741.64 -1.80755 0
-739.97 -1.74349 0
-738.299 -1.68007 0
-736.628 -1.62349 0
-734.958 -1.56675 0
-733.288 -1.52155 0
-731.617 -1.47391 0
-729.944 -1.42949 0
-728.274 -1.38641 0
-726.603 -1.3525 0
-724.933 -1.31921 0
-723.266 -1.28796 0
-721.594 -1.26011 0
-719.923 -1.23368 0
-718.252 -1.21168 0
-716.584 -1.1939 0
-714.914 -1.18001 0
-713.245 -1.17243 0
-711.577 -1.16211 0
-709.911 -1.15263 0
-708.242 -1.15153 0
-706.577 -1.14822 0
-704.91 -1.15365 0
-703.242 -1.15658 0
-701.578 -1.16796 0
-699.913 -1.1771 0
-698.247 -1.19149 0
-696.582 -1.20751 0
-694.918 -1.22556 0
-693.254 -1.24701 0
-691.589 -1.26862 0
-689.924 -1.29072 0
-688.263 -1.318 0
-686.599 -1.34539 0
-684.936 -1.37774 0
-683.274 -1.4082 0
-681.612 -1.44276 0
-679.951 -1.47626 0
-678.287 -1.50981 0
-676.626 -1.54826 0
-674.968 -1.58585 0
-673.307 -1.62572 0
-671.651 -1.67075 0
-669.995 -1.71082 0
-668.337 -1.75427 0
-666.678 -1.80183 0
-665.02 -1.85016 0
-663.363 -1.89678 0
-661.704 -1.94167 0
-660.049 -1.99168 0
-658.392 -2.04051 0
-656.735 -2.08703 0
-655.079 -2.1364 0
-653.423 -2.18859 0
-651.772 -2.24011 0
-650.12 -2.28837 0
-648.465 -2.33939 0
-646.811 -2.39085 0
-645.162 -2.4437 0
-643.509 -2.49432 0
-641.86 -2.54592 0
-640.208 -2.59954 0
-638.553 -2.64776 0
-636.903 -2.69853 0
-635.255 -2.74912 0
-633.606 -2.80356 0
-631.955 -2.85011 0
-630.305 -2.90099 0
-628.655 -2.94837 0
-627.006 -2.99521 0
-625.355 -3.04256 0
-623.707 -3.08749 0
-622.059 -3.135 0
-620.412 -3.18015 0
-618.764 -3.22758 0
-617.116 -3.27232 0
-615.468 -3.31561 0
-613.816 -3.35543 0
-612.173 -3.40001 0
-610.525 -3.44384 0
-608.877 -3.48626 0
-607.233 -3.52813 0
-605.587 -3.56757 0
-603.943 -3.60349 0
-602.294 -3.64094 0
-600.648 -3.67634 0
-599.003 -3.71278 0
-597.354 -3.74742 0
-595.705 -3.77738 0
-594.063 -3.80642 0
-592.42 -3.83914 0
-590.775 -3.87152 0
-589.13 -3.89653 0
-587.482 -3.92075 0
-585.838 -3.94828 0
-584.192 -3.96942 0
-582.549 -3.99467 0
-580.904 -4.01699 0
-579.258 -4.03549 0
-577.611 -4.05785 0
-575.967 -4.08038 0
-574.318 -4.09691 0
-572.671 -4.11765 0
-571.026 -4.137 0
-569.378 -4.15129 0
-567.733 -4.16749 0
-566.084 -4.18186 0
-564.44 -4.19464 0
-562.794 -4.20398 0
-561.149 -4.2121 0
-559.504 -4.2195 0
-557.861 -4.22701 0
-556.214 -4.23315 0
-554.566 -4.23892 0
-552.921 -4.245 0
-551.277 -4.24659 0
-549.629 -4.25086 0
-547.983 -4.25171 0
-546.335 -4.25619 0
-544.687 -4.25717 0
-543.04 -4.25948 0
-541.391 -4.2553 0
-539.745 -4.25439 0
-538.099 -4.25147 0
-536.452 -4.24918 0
-534.807 -4.24399 0
-533.161 -4.24054 0
-531.513 -4.23242 0
-529.866 -4.22875 0
-528.218 -4.22122 0
-526.571 -4.21132 0
-524.922 -4.2037 0
-523.275 -4.19407 0
-521.627 -4.18589 0
-519.978 -4.17861 0
-518.331 -4.16742 0
-516.679 -4.15648 0
-515.031 -4.14276 0
-513.383 -4.13382 0
-511.732 -4.12228 0
-510.085 -4.10772 0
-508.435 -4.09381 0
-506.786 -4.0773 0
-505.137 -4.06816 0
-503.489 -4.05733 0
-501.842 -4.03951 0
-500.193 -4.02712 0
-498.542 -4.01214 0
-496.892 -3.99957 0
-495.246 -3.98391 0
-493.596 -3.9679 0
-491.942 -3.94873 0
-490.291 -3.93587 0
-488.645 -3.91927 0
-486.994 -3.90118 0
-485.343 -3.88468 0
-483.694 -3.86423 0
-482.039 -3.84685 0
-480.389 -3.82998 0
-478.739 -3.81489 0
-477.088 -3.79492 0
-475.439 -3.77777 0
-473.789 -3.76042 0
-472.138 -3.74856 0
-470.486 -3.73158 0
-468.835 -3.71674 0
-467.182 -3.69738 0
-465.528 -3.68084 0
-463.881 -3.67059 0
-462.225 -3.65826 0
-460.574 -3.64011 0
-458.921 -3.62478 0
-457.271 -3.61257 0
-455.616 -3.59811 0
-453.966 -3.58232 0
-452.316 -3.56618 0
-450.663 -3.55077 0
-449.011 -3.53346 0
-447.358 -3.51877 0
-445.705 -3.50143 0
-444.054 -3.48695 0
-442.402 -3.47663 0
-440.748 -3.46551 0
-439.092 -3.45077 0
-437.442 -3.43911 0
-435.789 -3.42966 0
-434.134 -3.4176 0
-432.481 -3.40184 0
-430.831 -3.38902 0
-429.18 -3.37792 0
-427.527 -3.36903 0
-425.876 -3.35998 0
-424.222 -3.34446 0
-422.57 -3.33587 0
-420.916 -3.32882 0
-419.262 -3.31533 0
-417.612 -3.3075 0
-415.955 -3.30242 0
-414.3 -3.29603 0
-412.651 -3.28966 0
-410.994 -3.27996 0
-409.344 -3.26608 0
-407.694 -3.25817 0
-406.042 -3.25229 0
-404.387 -3.2497 0
-402.733 -3.2449 0
-401.081 -3.23922 0
-399.428 -3.235 0
-397.772 -3.22658 0
-396.12 -3.22271 0
-394.466 -3.21949 0
-392.813 -3.2128 0
-391.164 -3.20944 0
-389.51 -3.20498 0
-387.859 -3.20004 0
-386.204 -3.19909 0
-384.552 -3.19335 0
-382.898 -3.19291 0
-381.249 -3.19557 0
-379.598 -3.19049 0
-377.946 -3.18788 0
-376.294 -3.18897 0
-374.645 -3.18484 0
-372.99 -3.18043 0
-371.337 -3.18073 0
-369.684 -3.1774 0
-368.029 -3.18149 0
-366.376 -3.18072 0
-364.726 -3.18044 0
-363.076 -3.18162 0
-361.425 -3.17334 0
-359.776 -3.17089 0
-358.123 -3.17294 0
-356.468 -3.17692 0
-354.817 -3.17879 0
-353.167 -3.18272 0
-351.514 -3.18321 0
-349.862 -3.19476 0
-348.21 -3.19069 0
-346.561 -3.19358 0
-344.91 -3.19611 0
-343.257 -3.1958 0
-341.607 -3.19863 0
-339.955 -3.20284 0
-338.299 -3.20694 0
-336.651 -3.20254 0
-335.001 -3.20816 0
-333.35 -3.21262 0
-331.698 -3.21425 0
-330.044 -3.21894 0
-328.396 -3.22246 0
-326.745 -3.22682 0
-325.089 -3.22814 0
-323.437 -3.23267 0
-321.786 -3.23363 0
-320.135 -3.23791 0
-318.485 -3.2449 0
-316.832 -3.25216 0
-315.179 -3.2514 0
-313.532 -3.25602 0
-311.885 -3.25745 0
-310.228 -3.25971 0
-308.577 -3.26324 0
-306.923 -3.27417 0
-305.274 -3.27872 0
-303.621 -3.28291 0
-301.973 -3.2891 0
-300.321 -3.28953 0
-298.666 -3.29624 0
-297.015 -3.3022 0
-295.367 -3.29845 0
-293.719 -3.30583 0
-292.067 -3.3073 0
-290.414 -3.30823 0
-288.768 -3.31634 0
-287.114 -3.31953 0
-285.461 -3.32397 0
-283.813 -3.33315 0
-282.165 -3.335 0
-280.514 -3.34317 0
-278.859 -3.34288 0
-277.209 -3.34678 0
-275.562 -3.35047 0
-273.91 -3.35921 0
-272.261 -3.3623 0
-270.613 -3.3699 0
-268.96 -3.37291 0
-267.308 -3.37965 0
-265.657 -3.37363 0
-264.012 -3.37896 0
-262.362 -3.38245 0
-260.708 -3.37963 0
-259.061 -3.38413 0
-257.405 -3.39141 0
-255.757 -3.39562 0
-254.106 -3.3983 0
-252.458 -3.40273 0
-250.807 -3.40304 0
-249.16 -3.41095 0
-247.509 -3.41384 0
-245.861 -3.41201 0
-244.207 -3.41306 0
-242.556 -3.41676 0
-240.902 -3.41464 0
-239.257 -3.41413 0
-237.61 -3.42204 0
-235.957 -3.4234 0
-234.308 -3.42223 0
-232.657 -3.42232 0
-231.006 -3.42055 0
-229.36 -3.41987 0
-227.71 -3.42052 0
-226.064 -3.41912 0
-224.413 -3.42387 0
-222.761 -3.43048 0
-221.111 -3.42962 0
-219.46 -3.43412 0
-217.811 -3.42833 0
-216.161 -3.43316 0
-214.506 -3.43298 0
-212.855 -3.43289 0
-211.207 -3.42876 0
-209.562 -3.4253 0
-207.915 -3.42974 0
-206.26 -3.4302 0
-204.609 -3.42397 0
-202.959 -3.42731 0
-201.305 -3.42978 0
-199.658 -3.42743 0
-198.007 -3.42352 0
-196.356 -3.42055 0
-194.709 -3.41707 0
-193.056 -3.41968 0
-191.407 -3.41922 0
-189.757 -3.41454 0
-188.106 -3.42011 0
-186.458 -3.41901 0
-184.811 -3.42168 0
-183.157 -3.41912 0
-181.506 -3.41803 0
-179.854 -3.41148 0
-178.202 -3.41408 0
-176.554 -3.41341 0
-174.9 -3.41665 0
-173.251 -3.41259 0
-171.601 -3.41423 0
-169.951 -3.41085 0
-168.303 -3.41209 0
-166.653 -3.40626 0
-165.006 -3.40736 0
-163.356 -3.40561 0
-161.704 -3.40116 0
-160.056 -3.39533 0
-158.409 -3.40091 0
-156.763 -3.39642 0
-155.108 -3.39232 0
-153.458 -3.39222 0
-151.805 -3.39194 0
-150.157 -3.39076 0
-148.504 -3.38899 0
-146.855 -3.38916 0
-145.204 -3.38429 0
-143.553 -3.38233 0
-141.904 -3.38035 0
-140.255 -3.37354 0
-138.607 -3.37146 0
-136.957 -3.36999 0
-135.307 -3.36611 0
-133.66 -3.37081 0
-132.012 -3.36317 0
-130.362 -3.36284 0
-128.708 -3.35952 0
-127.056 -3.35499 0
-125.404 -3.34968 0
-123.757 -3.35034 0
-122.106 -3.3433 0
-120.456 -3.34155 0
-118.806 -3.33978 0
-117.159 -3.33595 0
-115.504 -3.33377 0
-113.856 -3.32494 0
-112.206 -3.32706 0
-110.558 -3.32846 0
-108.904 -3.33277 0
-107.255 -3.32755 0
-105.607 -3.3273 0
-103.959 -3.32242 0
-102.311 -3.32513 0
-100.657 -3.31927 0
-99.0115 -3.31494 0
-97.3601 -3.31317 0
-95.7059 -3.30905 0
-94.0547 -3.30644 0
-92.4078 -3.30216 0
-90.7575 -3.2993 0
-89.1084 -3.30425 0
-87.4591 -3.30302 0
-85.81 -3.30408 0
-84.1584 -3.29815 0
-82.507 -3.29311 0
-80.8559 -3.29032 0
-79.2093 -3.28933 0
-77.5616 -3.2829 0
-75.9122 -3.28189 0
-74.2608 -3.27896 0
-72.6116 -3.27319 0
-70.9592 -3.27213 0
-69.305 -3.2727 0
-67.6532 -3.27099 0
-66.0014 -3.27021 0
-64.3525 -3.2647 0
-62.7031 -3.27045 0
-61.0511 -3.26516 0
-59.4029 -3.26027 0
-57.7514 -3.25936 0
-56.1031 -3.25527 0
-54.4542 -3.25304 0
-52.8 -3.25099 0
-51.1519 -3.25697 0
-49.5054 -3.25176 0
-47.8553 -3.25113 0
-46.2053 -3.24879 0
-44.5552 -3.24371 0
-42.9049 -3.24671 0
-41.2477 -3.24129 0
-39.5965 -3.24039 0
-37.9454 -3.24047 0
-36.2969 -3.24657 0
-34.6522 -3.24749 0
-33.0044 -3.24296 0
-31.3548 -3.23988 0
-29.7052 -3.23832 0
-28.0565 -3.23192 0
-26.406 -3.23483 0
-24.7549 -3.23709 0
-23.1015 -3.23781 0
-21.4523 -3.2393 0
-19.8025 -3.24183 0
-18.151 -3.2358 0
-16.4947 -3.23683 0
-14.8474 -3.23022 0
-13.1964 -3.23043 0
-11.55 -3.23572 0
-9.90138 -3.23471 0
-8.25144 -3.23427 0
-6.59663 -3.23318 0
-4.94531 -3.23695 0
-3.29493 -3.23873 0
-1.65074 -3.23438 0
0 -3.23193 0
-1112 152.657 0
-1111.79 140.059 0
-1111.74 127.798 0
-1111.65 115.757 0
-1111.51 103.972 0
-1111.3 92.4811 0
-1111.01 81.3272 0
-1110.66 70.6007 0
-1110.24 60.3494 0
-1109.8 50.6168 0
-1109.3 41.431 0
-1108.76 32.8082 0
-1108.17 24.7612 0
-1107.54 17.2983 0
-1106.93 10.3921 0
-1106.37 3.93708 0
-1105.87 -2.08728 0
-1105.39 -7.74501 0
-1104.89 -13.0398 0
-1104.36 -17.9696 0
-1103.82 -22.4997 0
-1103.26 -26.6397 0
-1102.68 -30.3775 0
-1102.09 -33.728 0
-1101.49 -36.6993 0
-1100.88 -39.2942 0
-1100.27 -41.5339 0
-1099.64 -43.4355 0
-1098.99 -45.0225 0
-1098.33 -46.306 0
-1097.65 -47.3109 0
-1096.96 -48.0621 0
-1096.23 -48.5663 0
-1095.47 -48.8486 0
-1094.69 -48.9203 0
-1093.87 -48.8016 0
-1093.01 -48.5063 0
-1092.13 -48.0464 0
-1091.2 -47.4334 0
-1090.25 -46.6904 0
-1089.26 -45.8171 0
-1088.23 -44.8312 0
-1087.17 -43.7422 0
-1086.07 -42.559 0
-1084.94 -41.2962 0
-1083.78 -39.9548 0
-1082.58 -38.5592 0
-1081.35 -37.0969 0
-1080.09 -35.5847 0
-1078.79 -34.0331 0
-1077.47 -32.4461 0
-1076.12 -30.8339 0
-1074.73 -29.1978 0
-1073.33 -27.548 0
-1071.89 -25.8859 0
-1070.43 -24.2208 0
-1068.95 -22.5577 0
-1067.44 -20.8982 0
-1065.91 -19.247 0
-1064.35 -17.6097 0
-1062.78 -15.9894 0
-1061.18 -14.3889 0
-1059.57 -12.808 0
-1057.94 -11.2574 0
-1056.29 -9.73033 0
-1054.62 -8.23562 0
-1052.94 -6.7718 0
-1051.25 -5.34154 0
-1049.54 -3.95139 0
-1047.82 -2.59756 0
-1046.09 -1.28431 0
-1044.34 -0.00716886 0
-1042.59 1.22876 0
-1040.82 2.41667 0
-1039.05 3.56311 0
-1037.27 4.66494 0
-1035.48 5.72269 0
-1033.68 6.73505 0
-1031.88 7.70059 0
-1030.07 8.62466 0
-1028.26 9.50117 0
-1026.44 10.3306 0
-1024.62 11.1159 0
-1022.79 11.8505 0
-1020.96 12.5421 0
-1019.13 13.187 0
-1017.3 13.7895 0
-1015.46 14.3432 0
-1013.62 14.856 0
-1011.79 15.322 0
-1009.95 15.7491 0
-1008.11 16.1304 0
-1006.28 16.471 0
-1004.44 16.7709 0
-1002.61 17.0315 0
-1000.78 17.2495 0
-998.949 17.4307 0
-997.119 17.5703 0
-995.295 17.6741 0
-993.473 17.7411 0
-991.652 17.7744 0
-989.837 17.7705 0
-988.024 17.7357 0
-986.217 17.6704 0
-984.413 17.5721 0
-982.611 17.4455 0
-980.813 17.2905 0