<?xml version="1.0"?>
<VTKFile type="StructuredGrid"  version="0.1" byte_order="LittleEndian" compressor="vtkZLibDataCompressor">
  <StructuredGrid WholeExtent="0 700 0 30 0 0">
    <Piece Extent="0 700 0 30 0 0">
      <PointData Vectors="Velocity">
        <DataArray type="Float32" Name="Velocity" NumberOfComponents="3" format="ascii">
-1087.71 204.493 0
-1087.92 189.957 0
-1088.18 175.543 0
-1088.47 161.328 0
-1088.79 147.354 0
-1089.14 133.664 0
-1089.55 120.329 0
-1090.02 107.419 0
-1090.52 94.9767 0
-1091.04 83.0239 0
-1091.58 71.5795 0
-1092.12 60.6752 0
-1092.64 50.3091 0
-1093.15 40.5004 0
-1093.63 31.267 0
-1094.08 22.615 0
-1094.43 14.5388 0
-1094.66 6.9361 0
-1094.85 -0.325986 0
-1095.1 -7.21774 0
-1095.38 -13.684 0
-1095.61 -19.7392 0
-1095.82 -25.3778 0
-1096.02 -30.6163 0
-1096.21 -35.4671 0
-1096.37 -39.9329 0
-1096.53 -44.0168 0
-1096.65 -47.7356 0
-1096.75 -51.1035 0
-1096.81 -54.1184 0
-1096.84 -56.8119 0
-1096.83 -59.1888 0
-1096.79 -61.2553 0
-1096.69 -63.0333 0
-1096.55 -64.5366 0
-1096.36 -65.7769 0
-1096.12 -66.7675 0
-1095.83 -67.5226 0
-1095.49 -68.0574 0
-1095.09 -68.3797 0
-1094.64 -68.5009 0
-1094.14 -68.4386 0
-1093.59 -68.2036 0
-1092.98 -67.7977 0
-1092.32 -67.2422 0
-1091.62 -66.546 0
-1090.85 -65.7135 0
-1090.04 -64.7589 0
-1089.18 -63.694 0
-1088.28 -62.5142 0
-1087.32 -61.2424 0
-1086.32 -59.8848 0
-1085.27 -58.4413 0
-1084.18 -56.9298 0
-1083.05 -55.3501 0
-1081.87 -53.7118 0
-1080.66 -52.0231 0
-1079.41 -50.2907 0
-1078.12 -48.5175 0
-1076.79 -46.7064 0
-1075.43 -44.8657 0
-1074.04 -43.0003 0
-1072.6 -41.1196 0
-1071.14 -39.225 0
-1069.65 -37.3186 0
-1068.12 -35.4109 0
-1066.57 -33.4993 0
-1064.99 -31.5911 0
-1063.39 -29.6905 0
-1061.76 -27.794 0
-1060.11 -25.9168 0
-1058.43 -24.0495 0
-1056.73 -22.202 0
-1055.02 -20.3762 0
-1053.28 -18.5729 0
-1051.52 -16.7953 0
-1049.75 -15.0467 0
-1047.96 -13.3202 0
-1046.15 -11.632 0
-1044.33 -9.97351 0
-1042.5 -8.34877 0
-1040.65 -6.76079 0
-1038.79 -5.21711 0
-1036.93 -3.70516 0
-1035.05 -2.23221 0
-1033.16 -0.797171 0
-1031.26 0.591982 0
-1029.35 1.93839 0
-1027.43 3.24594 0
-1025.51 4.50881 0
-1023.58 5.7267 0
-1021.65 6.90011 0
-1019.71 8.02987 0
-1017.77 9.11321 0
-1015.82 10.1519 0
-1013.87 11.1466 0
-1011.91 12.0955 0
-1009.96 12.997 0
-1008 13.8575 0
-1006.05 14.6719 0
-1004.09 15.4397 0
-1002.13 16.163 0
-1000.16 16.8403 0
-998.208 17.474 0
-996.253 18.0626 0
-994.294 18.61 0
-992.342 19.1149 0
-990.389 19.5756 0
-988.441 19.995 0
-986.493 20.3725 0
-984.549 20.7093 0
-982.61 21.0073 0
-980.673 21.27 0
-978.739 21.4932 0
-976.81 21.6755 0
-974.884 21.8207 0
-972.964 21.9306 0
-971.053 22.0035 0
-969.142 22.042 0
-967.238 22.0484 0
-965.341 22.0203 0
-963.45 21.9632 0
-961.563 21.8716 0
-959.681 21.7478 0
-957.806 21.5973 0
-955.936 21.4186 0
-954.074 21.2134 0
-952.22 20.9804 0
-950.37 20.7224 0
-948.527 20.4403 0
-946.692 20.1351 0
-944.863 19.8064 0
-943.04 19.4564 0
-941.225 19.0851 0
-939.417 18.6935 0
-937.615 18.2852 0
-935.82 17.8577 0
-934.031 17.4167 0
-932.249 16.958 0
-930.476 16.4832 0
-928.706 15.9965 0
-926.942 15.4983 0
-925.188 14.985 0
-923.439 14.4625 0
-921.699 13.9296 0
-919.962 13.3882 0
-918.233 12.8409 0
-916.51 12.2842 0
-914.794 11.7206 0
-913.082 11.153 0
-911.375 10.5805 0
-909.674 10.0042 0
-907.981 9.42524 0
-906.292 8.84238 0
-904.606 8.25961 0
-902.928 7.67532 0
-901.254 7.09219 0
-899.586 6.50803 0
-897.922 5.92732 0
-896.264 5.34816 0
-894.61 4.77287 0
-892.957 4.20136 0
-891.31 3.63115 0
-889.668 3.06752 0
-888.031 2.51063 0
-886.395 1.95764 0
-884.766 1.41129 0
-883.136 0.872662 0
-881.514 0.340669 0
-879.894 -0.185362 0
-878.278 -0.70248 0
-876.664 -1.20885 0
-875.054 -1.70642 0
-873.445 -2.19786 0
-871.84 -2.67463 0
-870.238 -3.14444 0
-868.637 -3.60234 0
-867.036 -4.05281 0
-865.439 -4.49094 0
-863.844 -4.91543 0
-862.251 -5.33109 0
-860.659 -5.73544 0
-859.069 -6.12679 0
-857.479 -6.50976 0
-855.891 -6.87497 0
-854.304 -7.22913 0
-852.717 -7.57341 0
-851.133 -7.8988 0
-849.548 -8.21933 0
-847.965 -8.52528 0
-846.384 -8.81928 0
-844.799 -9.09953 0
-843.216 -9.36773 0
-841.634 -9.62534 0
-840.052 -9.86705 0
-838.468 -10.0943 0
-836.887 -10.3138 0
-835.304 -10.519 0
-833.722 -10.7135 0
-832.137 -10.8934 0
-830.552 -11.0595 0
-828.966 -11.2184 0
-827.382 -11.3607 0
-825.795 -11.4958 0
-824.209 -11.6142 0
-822.619 -11.7246 0
-821.03 -11.8233 0
-819.442 -11.9098 0
-817.85 -11.9848 0
-816.259 -12.0481 0
-814.664 -12.1026 0
-813.071 -12.1477 0
-811.474 -12.1813 0
-809.88 -12.2049 0
-808.282 -12.2194 0
-806.681 -12.2224 0
-805.081 -12.219 0
-803.479 -12.2008 0
-801.873 -12.178 0
-800.267 -12.1415 0
-798.659 -12.1028 0
-797.049 -12.0548 0
-795.439 -11.9971 0
-793.829 -11.931 0
-792.214 -11.8624 0
-790.601 -11.782 0
-788.985 -11.6938 0
-787.364 -11.6013 0
-785.744 -11.5025 0
-784.123 -11.4003 0
-782.5 -11.2856 0
-780.878 -11.169 0
-779.251 -11.0442 0
-777.62 -10.9161 0
-775.992 -10.7841 0
-774.36 -10.6472 0
-772.726 -10.504 0
-771.09 -10.3595 0
-769.455 -10.2095 0
-767.815 -10.0532 0
-766.176 -9.89608 0
-764.534 -9.73766 0
-762.89 -9.57293 0
-761.245 -9.40685 0
-759.6 -9.24128 0
-757.954 -9.06898 0
-756.304 -8.89579 0
-754.653 -8.71978 0
-753.002 -8.54531 0
-751.349 -8.3692 0
-749.695 -8.19093 0
-748.037 -8.0105 0
-746.381 -7.83033 0
-744.724 -7.64885 0
-743.064 -7.4701 0
-741.404 -7.28696 0
-739.74 -7.10539 0
-738.075 -6.92629 0
-736.41 -6.74552 0
-734.746 -6.56608 0
-733.079 -6.38393 0
-731.409 -6.20578 0
-729.74 -6.02716 0
-728.069 -5.85133 0
-726.398 -5.67526 0
-724.724 -5.50098 0
-723.049 -5.33055 0
-721.376 -5.15998 0
-719.699 -4.99223 0
-718.021 -4.82527 0
-716.342 -4.66073 0
-714.665 -4.49906 0
-712.987 -4.33878 0
-711.307 -4.18411 0
-709.627 -4.0291 0
-707.946 -3.87765 0
-706.265 -3.72971 0
-704.583 -3.57961 0
-702.898 -3.43557 0
-701.216 -3.29397 0
-699.534 -3.15775 0
-697.848 -3.02278 0
-696.164 -2.89162 0
-694.477 -2.76447 0
-692.792 -2.63622 0
-691.105 -2.51768 0
-689.42 -2.39955 0
-687.733 -2.28449 0
-686.046 -2.17371 0
-684.359 -2.06539 0
-682.675 -1.96023 0
-680.984 -1.86107 0
-679.297 -1.76344 0
-677.608 -1.66849 0
-675.922 -1.57914 0
-674.236 -1.49268 0
-672.546 -1.40905 0
-670.858 -1.33023 0
-669.173 -1.2548 0
-667.483 -1.18124 0
-665.795 -1.11188 0
-664.106 -1.04502 0
-662.419 -0.983493 0
-660.732 -0.924672 0
-659.043 -0.870592 0
-657.359 -0.821124 0
-655.669 -0.774615 0
-653.98 -0.730397 0
-652.294 -0.689994 0
-650.608 -0.648915 0
-648.92 -0.615713 0
-647.235 -0.585002 0
-645.551 -0.557671 0
-643.862 -0.535693 0
-642.18 -0.516421 0
-640.496 -0.496134 0
-638.812 -0.481565 0
-637.126 -0.470968 0
-635.442 -0.456744 0
-633.753 -0.455936 0
-632.07 -0.454358 0
-630.39 -0.448878 0
-628.704 -0.452175 0
-627.022 -0.456966 0
-625.339 -0.466865 0
-623.656 -0.476396 0
-621.978 -0.488381 0
-620.296 -0.504772 0
-618.615 -0.523864 0
-616.933 -0.544532 0
-615.256 -0.567074 0
-613.573 -0.590433 0
-611.895 -0.617236 0
-610.217 -0.648323 0
-608.539 -0.679359 0
-606.862 -0.710604 0
-605.184 -0.74757 0
-603.508 -0.782328 0
-601.833 -0.818536 0
-600.158 -0.858952 0
-598.482 -0.903196 0
-596.803 -0.948119 0
-595.13 -0.996059 0
-593.458 -1.03881 0
-591.784 -1.09024 0
-590.109 -1.13685 0
-588.434 -1.187 0
-586.765 -1.24205 0
-585.093 -1.29185 0
-583.42 -1.34323 0
-581.751 -1.39931 0
-580.08 -1.45279 0
-578.411 -1.51288 0
-576.744 -1.56906 0
-575.074 -1.62569 0
-573.402 -1.6816 0
-571.733 -1.74088 0
-570.067 -1.80369 0
-568.404 -1.86362 0
-566.732 -1.92533 0
-565.068 -1.98384 0
-563.403 -2.04426 0
-561.739 -2.10351 0
-560.073 -2.16475 0
-558.403 -2.22589 0
-556.741 -2.28892 0
-555.073 -2.35528 0
-553.412 -2.41254 0
-551.745 -2.47914 0
-550.082 -2.54098 0
-548.419 -2.59765 0
-546.755 -2.66085 0
-545.093 -2.72245 0
-543.43 -2.78794 0
-541.767 -2.85148 0
-540.106 -2.91027 0
-538.444 -2.96825 0
-536.782 -3.02654 0
-535.123 -3.08142 0
-533.462 -3.14149 0
-531.804 -3.19842 0
-530.144 -3.25765 0
-528.482 -3.31103 0
-526.823 -3.37003 0
-525.161 -3.42762 0
-523.501 -3.48073 0
-521.844 -3.53476 0
-520.182 -3.58498 0
-518.525 -3.63478 0
-516.867 -3.68866 0
-515.209 -3.73875 0
-513.556 -3.78894 0
-511.898 -3.8403 0
-510.238 -3.88708 0
-508.582 -3.93661 0
-506.919 -3.97831 0
-505.263 -4.02509 0
-503.605 -4.06885 0
-501.953 -4.11533 0
-500.295 -4.15669 0
-498.64 -4.20082 0
-496.98 -4.24509 0
-495.327 -4.28149 0
-493.671 -4.31868 0
-492.011 -4.35581 0
-490.355 -4.3929 0
-488.699 -4.42594 0
-487.042 -4.46809 0
-485.383 -4.4978 0
-483.725 -4.5305 0
-482.07 -4.55969 0
-480.412 -4.58857 0
-478.756 -4.61751 0
-477.097 -4.64593 0
-475.439 -4.67924 0
-473.787 -4.70425 0
-472.125 -4.72893 0
-470.468 -4.75195 0
-468.812 -4.77638 0
-467.156 -4.79761 0
-465.503 -4.82004 0
-463.848 -4.8351 0
-462.19 -4.85803 0
-460.532 -4.8737 0
-458.875 -4.89232 0
-457.22 -4.91227 0
-455.564 -4.92377 0
-453.905 -4.93456 0
-452.246 -4.94744 0
-450.585 -4.95399 0
-448.927 -4.96849 0
-447.273 -4.97597 0
-445.614 -4.9839 0
-443.956 -4.99024 0
-442.293 -4.99927 0
-440.641 -5.00789 0
-438.983 -5.01559 0
-437.327 -5.02514 0
-435.67 -5.02653 0
-434.008 -5.03015 0
-432.351 -5.03237 0
-430.693 -5.03473 0
-429.028 -5.02758 0
-427.371 -5.0342 0
-425.707 -5.03805 0
-424.053 -5.03672 0
-422.394 -5.03853 0
-420.739 -5.03629 0
-419.082 -5.02708 0
-417.427 -5.02229 0
-415.761 -5.01831 0
-414.103 -5.01525 0
-412.445 -5.00629 0
-410.785 -4.99963 0
-409.125 -4.99241 0
-407.463 -4.98789 0
-405.805 -4.97799 0
-404.139 -4.96407 0
-402.481 -4.96066 0
-400.824 -4.95024 0
-399.162 -4.94163 0
-397.498 -4.93489 0
-395.838 -4.9217 0
-394.176 -4.91183 0
-392.518 -4.90109 0
-390.858 -4.89369 0
-389.201 -4.88331 0
-387.534 -4.87015 0
-385.88 -4.84988 0
-384.212 -4.84111 0
-382.549 -4.82972 0
-380.887 -4.81613 0
-379.221 -4.80905 0
-377.557 -4.79095 0
-375.896 -4.78014 0
-374.235 -4.76383 0
-372.576 -4.75432 0
-370.918 -4.73901 0
-369.253 -4.72589 0
-367.589 -4.71755 0
-365.931 -4.69209 0
-364.269 -4.67992 0
-362.601 -4.666 0
-360.936 -4.6542 0
-359.275 -4.63784 0
-357.61 -4.62184 0
-355.955 -4.60879 0
-354.293 -4.59237 0
-352.629 -4.5667 0
-350.961 -4.55947 0
-349.296 -4.54337 0
-347.63 -4.53485 0
-345.965 -4.51913 0
-344.301 -4.50386 0
-342.633 -4.49526 0
-340.968 -4.47773 0
-339.305 -4.46395 0
-337.644 -4.44057 0
-335.974 -4.42953 0
-334.313 -4.4163 0
-332.651 -4.40627 0
-330.987 -4.39145 0
-329.326 -4.38136 0
-327.658 -4.36579 0
-325.994 -4.35469 0
-324.334 -4.34093 0
-322.674 -4.32545 0
-321.004 -4.31374 0
-319.346 -4.30343 0
-317.679 -4.28921 0
-316.015 -4.26861 0
-314.352 -4.25842 0
-312.682 -4.25475 0
-311.017 -4.24282 0
-309.348 -4.2246 0
-307.681 -4.21688 0
-306.014 -4.21718 0
-304.353 -4.20714 0
-302.691 -4.1935 0
-301.028 -4.18896 0
-299.356 -4.17665 0
-297.691 -4.16792 0
-296.027 -4.16057 0
-294.361 -4.14339 0
-292.699 -4.14154 0
-291.032 -4.1378 0
-289.369 -4.12737 0
-287.702 -4.11832 0
-286.037 -4.11108 0
-284.372 -4.10886 0
-282.709 -4.09783 0
-281.043 -4.09101 0
-279.378 -4.08324 0
-277.714 -4.07514 0
-276.051 -4.07446 0
-274.384 -4.0735 0
-272.716 -4.07131 0
-271.047 -4.06181 0
-269.381 -4.05795 0
-267.719 -4.05545 0
-266.051 -4.05262 0
-264.386 -4.04834 0
-262.723 -4.04008 0
-261.055 -4.03828 0
-259.393 -4.04135 0
-257.727 -4.03745 0
-256.063 -4.03644 0
-254.397 -4.04366 0
-252.731 -4.03693 0
-251.07 -4.02926 0
-249.404 -4.0314 0
-247.743 -4.02799 0
-246.078 -4.02234 0
-244.418 -4.02597 0
-242.748 -4.02222 0
-241.081 -4.02734 0
-239.417 -4.02575 0
-237.755 -4.03114 0
-236.091 -4.02766 0
-234.425 -4.03455 0
-232.755 -4.02984 0
-231.092 -4.03375 0
-229.432 -4.03819 0
-227.767 -4.03782 0
-226.1 -4.04048 0
-224.436 -4.04314 0
-222.775 -4.04344 0
-221.11 -4.046 0
-219.448 -4.04567 0
-217.783 -4.04593 0
-216.116 -4.04904 0
-214.453 -4.05594 0
-212.787 -4.0592 0
-211.127 -4.05956 0
-209.47 -4.06481 0
-207.807 -4.07032 0
-206.137 -4.07138 0
-204.473 -4.0703 0
-202.812 -4.08105 0
-201.143 -4.0877 0
-199.483 -4.0906 0
-197.822 -4.09948 0
-196.156 -4.10436 0
-194.491 -4.10247 0
-192.822 -4.11659 0
-191.158 -4.12104 0
-189.494 -4.12389 0
-187.825 -4.14044 0
-186.169 -4.13809 0
-184.502 -4.14955 0
-182.839 -4.15792 0
-181.18 -4.16364 0
-179.516 -4.17102 0
-177.852 -4.17798 0
-176.176 -4.17628 0
-174.522 -4.18684 0
-172.864 -4.18846 0
-171.202 -4.19779 0
-169.537 -4.19971 0
-167.871 -4.2049 0
-166.204 -4.2128 0
-164.547 -4.21725 0
-162.884 -4.22738 0
-161.216 -4.23606 0
-159.553 -4.24041 0
-157.9 -4.24583 0
-156.234 -4.24397 0
-154.566 -4.25492 0
-152.904 -4.25892 0
-151.234 -4.27336 0
-149.572 -4.28186 0
-147.903 -4.28756 0
-146.245 -4.29822 0
-144.583 -4.29772 0
-142.924 -4.29502 0
-141.262 -4.30396 0
-139.601 -4.3113 0
-137.933 -4.32462 0
-136.272 -4.32881 0
-134.615 -4.33793 0
-132.951 -4.34778 0
-131.293 -4.35243 0
-129.631 -4.36487 0
-127.962 -4.36696 0
-126.306 -4.37672 0
-124.648 -4.37672 0
-122.981 -4.3843 0
-121.321 -4.39336 0
-119.657 -4.40509 0
-117.992 -4.40852 0
-116.331 -4.41654 0
-114.672 -4.42744 0
-113.006 -4.42411 0
-111.347 -4.43003 0
-109.68 -4.43928 0
-108.02 -4.45011 0
-106.363 -4.4533 0
-104.703 -4.45664 0
-103.034 -4.46164 0
-101.374 -4.46592 0
-99.7157 -4.47243 0
-98.0529 -4.4782 0
-96.3868 -4.4853 0
-94.7345 -4.48344 0
-93.0707 -4.48863 0
-91.4053 -4.49319 0
-89.7363 -4.49837 0
-88.0758 -4.50152 0
-86.419 -4.50921 0
-84.7572 -4.51999 0
-83.0921 -4.52251 0
-81.4262 -4.53427 0
-79.7709 -4.53662 0
-78.1081 -4.53933 0
-76.4515 -4.54275 0
-74.7902 -4.54483 0
-73.1213 -4.5463 0
-71.459 -4.55603 0
-69.7988 -4.55758 0
-68.1437 -4.55938 0
-66.484 -4.56566 0
-64.8181 -4.56903 0
-63.1585 -4.57462 0
-61.4926 -4.57384 0
-59.8262 -4.58263 0
-58.1649 -4.57706 0
-56.5065 -4.59292 0
-54.8399 -4.59604 0
-53.1808 -4.59156 0
-51.5235 -4.59624 0
-49.8611 -4.59816 0
-48.1974 -4.60769 0
-46.5334 -4.60701 0
-44.8705 -4.61694 0
-43.2066 -4.61774 0
-41.5443 -4.62529 0
-39.8841 -4.62497 0
-38.2206 -4.6262 0
-36.5611 -4.63214 0
-34.8996 -4.62372 0
-33.2445 -4.62924 0
-31.5803 -4.62887 0
-29.916 -4.62608 0
-28.2553 -4.63314 0
-26.5975 -4.63884 0
-24.9212 -4.63476 0
-23.2593 -4.63671 0
-21.6063 -4.63346 0
-19.9423 -4.64662 0
-18.2821 -4.64403 0
-16.6121 -4.6441 0
-14.9545 -4.64591 0
-13.2927 -4.64881 0
-11.6202 -4.65168 0
-9.96392 -4.64561 0
-8.3037 -4.64002 0
-6.6492 -4.63726 0
-4.9858 -4.64271 0
-3.32396 -4.64751 0
-1.65867 -4.65035 0
0 -4.64518 0
-1102.24 204.734 0
-1102.35 190.159 0
-1102.45 175.725 0
-1102.55 161.497 0
-1102.62 147.508 0
-1102.68 133.793 0
-1102.71 120.42 0
-1102.73 107.471 0
-1102.74 94.9951 0
-1102.76 83.0145 0
-1102.76 71.5589 0
-1102.75 60.6416 0
-1102.72 50.2762 0
-1102.65 40.4815 0
-1102.53 31.2592 0
-1102.37 22.6392 0
-1102.2 14.5968 0
-1102.1 6.99161 0
-1101.99 -0.274937 0
-1101.83 -7.16749 0
-1101.65 -13.6369 0
-1101.47 -19.6856 0
-1101.3 -25.3256 0
-1101.11 -30.5638 0
-1100.91 -35.4082 0
-1100.7 -39.8651 0
-1100.47 -43.9378 0
-1100.23 -47.6457 0
-1099.98 -50.9893 0
-1099.71 -53.9844 0
-1099.41 -56.65 0
-1099.09 -58.9976 0
-1098.74 -61.0323 0
-1098.36 -62.7757 0
-1097.95 -64.2391 0
-1097.5 -65.4403 0
-1097.02 -66.3873 0
-1096.49 -67.0983 0
-1095.93 -67.5884 0
-1095.33 -67.8638 0
-1094.69 -67.9391 0
-1094 -67.8357 0
-1093.28 -67.5493 0
-1092.52 -67.0994 0
-1091.71 -66.4976 0
-1090.86 -65.7547 0
-1089.97 -64.8772 0
-1089.04 -63.8777 0
-1088.07 -62.7639 0
-1087.06 -61.5459 0
-1086.02 -60.2308 0
-1084.93 -58.8276 0
-1083.81 -57.3448 0
-1082.65 -55.7911 0
-1081.45 -54.1752 0
-1080.22 -52.5003 0
-1078.96 -50.7745 0
-1077.66 -49.0045 0
-1076.33 -47.1937 0
-1074.98 -45.3525 0
-1073.59 -43.4789 0
-1072.17 -41.5802 0
-1070.72 -39.671 0
-1069.25 -37.7438 0
-1067.75 -35.8125 0
-1066.22 -33.8792 0
-1064.67 -31.9407 0
-1063.1 -30.006 0
-1061.5 -28.0804 0
-1059.88 -26.1652 0
-1058.24 -24.2611 0
-1056.58 -22.3738 0
-1054.91 -20.5071 0
-1053.21 -18.664 0
-1051.5 -16.8415 0
-1049.77 -15.0468 0
-1048.02 -13.2798 0
-1046.26 -11.5429 0
-1044.49 -9.83712 0
-1042.7 -8.1664 0
-1040.9 -6.53152 0
-1039.09 -4.93099 0
-1037.27 -3.37253 0
-1035.44 -1.85063 0
-1033.6 -0.368866 0
-1031.75 1.07495 0
-1029.89 2.4726 0
-1028.03 3.82824 0
-1026.16 5.14169 0
-1024.28 6.41038 0
-1022.39 7.63231 0
-1020.5 8.81313 0
-1018.61 9.94623 0
-1016.71 11.0315 0
-1014.81 12.0763 0
-1012.9 13.0736 0
-1011 14.0252 0
-1009.09 14.9292 0
-1007.17 15.7895 0
-1005.26 16.6051 0
-1003.34 17.3739 0
-1001.43 18.0966 0
-999.515 18.7743 0
-997.601 19.4058 0
-995.685 19.9937 0
-993.773 20.5407 0
-991.862 21.0434 0
-989.953 21.5038 0
-988.044 21.9203 0
-986.137 22.2959 0
-984.233 22.6297 0
-982.33 22.9247 0
-980.433 23.1828 0
-978.54 23.4019 0
-976.649 23.5799 0
-974.761 23.7218 0
-972.878 23.828 0
-970.997 23.8951 0
-969.121 23.9286 0
-967.251 23.9293 0
-965.385 23.8966 0
-963.525 23.8328 0
-961.669 23.7364 0
-959.817 23.6088 0
-957.971 23.4527 0
-956.128 23.2676 0
-954.295 23.0559 0
-952.465 22.8171 0
-950.64 22.5532 0
-948.821 22.265 0
-947.009 21.9526 0
-945.202 21.6186 0
-943.403 21.2625 0
-941.607 20.885 0
-939.818 20.4875 0
-938.032 20.0718 0
-936.253 19.6401 0
-934.48 19.1908 0
-932.715 18.7268 0
-930.953 18.2473 0
-929.198 17.7542 0
-927.448 17.2472 0
-925.705 16.7283 0
-923.966 16.2006 0
-922.234 15.6629 0
-920.507 15.1148 0
-918.785 14.5588 0
-917.068 13.9984 0
-915.357 13.4309 0
-913.651 12.8573 0
-911.95 12.2796 0
-910.252 11.6993 0
-908.559 11.113 0
-906.872 10.5263 0
-905.188 9.93845 0
-903.51 9.34949 0
-901.835 8.76094 0
-900.166 8.17388 0
-898.5 7.58629 0
-896.838 7.00354 0
-895.181 6.42558 0
-893.527 5.84992 0
-891.877 5.27637 0
-890.229 4.7079 0
-888.585 4.14746 0
-886.944 3.59191 0
-885.306 3.0414 0
-883.672 2.49834 0
-882.041 1.96326 0
-880.413 1.43555 0
-878.786 0.915353 0
-877.163 0.40503 0
-875.546 -0.0963035 0
-873.929 -0.586695 0
-872.313 -1.06916 0
-870.699 -1.53993 0
-869.087 -2.00002 0
-867.476 -2.45126 0
-865.868 -2.89113 0
-864.263 -3.31893 0
-862.658 -3.73655 0
-861.054 -4.14114 0
-859.452 -4.53462 0
-857.851 -4.91735 0
-856.25 -5.28341 0
-854.651 -5.63998 0
-853.053 -5.98306 0
-851.456 -6.31382 0
-849.86 -6.63382 0
-848.264 -6.94037 0
-846.667 -7.2328 0
-845.072 -7.51398 0
-843.478 -7.78224 0
-841.883 -8.04036 0
-840.289 -8.28085 0
-838.692 -8.51105 0
-837.098 -8.72872 0
-835.502 -8.93279 0
-833.906 -9.12679 0
-832.31 -9.30646 0
-830.714 -9.47373 0
-829.117 -9.62956 0
-827.519 -9.77316 0
-825.922 -9.90586 0
-824.323 -10.0248 0
-822.724 -10.1335 0
-821.123 -10.2307 0
-819.521 -10.3179 0
-817.921 -10.3898 0
-816.318 -10.4547 0
-814.713 -10.5081 0
-813.108 -10.5516 0
-811.504 -10.5829 0
-809.898 -10.6072 0
-808.289 -10.6194 0
-806.68 -10.6214 0
-805.07 -10.6152 0
-803.458 -10.5966 0
-801.845 -10.5719 0
-800.231 -10.5355 0
-798.615 -10.494 0
-796.999 -10.4457 0
-795.38 -10.3867 0
-793.76 -10.3193 0
-792.138 -10.2493 0
-790.518 -10.1669 0
-788.893 -10.079 0
-787.269 -9.98408 0
-785.644 -9.8836 0
-784.015 -9.7779 0
-782.386 -9.66339 0
-780.756 -9.54282 0
-779.124 -9.41888 0
-777.492 -9.29004 0
-775.857 -9.15393 0
-774.222 -9.0168 0
-772.583 -8.87117 0
-770.943 -8.72599 0
-769.301 -8.57439 0
-767.659 -8.41833 0
-766.017 -8.25851 0
-764.373 -8.09869 0
-762.728 -7.93167 0
-761.081 -7.76647 0
-759.434 -7.59632 0
-757.781 -7.42343 0
-756.132 -7.24916 0
-754.479 -7.07283 0
-752.827 -6.89654 0
-751.172 -6.71987 0
-749.516 -6.53855 0
-747.859 -6.35739 0
-746.201 -6.17712 0
-744.543 -5.99401 0
-742.882 -5.81319 0
-741.221 -5.62905 0
-739.558 -5.44678 0
-737.896 -5.26434 0
-736.232 -5.08429 0
-734.564 -4.9035 0
-732.898 -4.72047 0
-731.232 -4.54065 0
-729.563 -4.36073 0
-727.895 -4.18435 0
-726.224 -4.00735 0
-724.554 -3.83277 0
-722.88 -3.66229 0
-721.206 -3.49092 0
-719.532 -3.32132 0
-717.858 -3.15308 0
-716.182 -2.98786 0
-714.505 -2.82679 0
-712.83 -2.66593 0
-711.151 -2.5084 0
-709.474 -2.35309 0
-707.796 -2.20237 0
-706.118 -2.05223 0
-704.438 -1.90415 0
-702.758 -1.75716 0
-701.077 -1.6178 0
-699.396 -1.48073 0
-697.716 -1.34424 0
-696.033 -1.21246 0
-694.351 -1.08469 0
-692.671 -0.959222 0
-690.987 -0.836246 0
-689.305 -0.716407 0
-687.621 -0.603571 0
-685.939 -0.492236 0
-684.255 -0.386478 0
-682.571 -0.277953 0
-680.887 -0.177589 0
-679.202 -0.079542 0
-677.518 0.0134705 0
-675.835 0.102865 0
-674.149 0.191938 0
-672.465 0.273423 0
-670.78 0.351718 0
-669.096 0.428273 0
-667.412 0.50145 0
-665.728 0.572127 0
-664.041 0.636911 0
-662.358 0.698192 0
-660.674 0.755838 0
-658.991 0.811196 0
-657.307 0.858786 0
-655.626 0.908127 0
-653.94 0.951949 0
-652.256 0.991389 0
-650.574 1.03197 0
-648.891 1.06598 0
-647.208 1.09603 0
-645.524 1.12268 0
-643.841 1.14462 0
-642.16 1.16372 0
-640.479 1.18311 0
-638.798 1.19825 0
-637.114 1.21063 0
-635.432 1.21944 0
-633.752 1.22605 0
-632.071 1.22641 0
-630.39 1.22911 0
-628.708 1.22619 0
-627.029 1.22 0
-625.348 1.21025 0
-623.67 1.19946 0
-621.991 1.1879 0
-620.312 1.1709 0
-618.635 1.15178 0
-616.955 1.13049 0
-615.277 1.1086 0
-613.601 1.08345 0
-611.925 1.0587 0
-610.248 1.02565 0
-608.569 0.993584 0
-606.893 0.960319 0
-605.218 0.927718 0
-603.545 0.889631 0
-601.871 0.853746 0
-600.198 0.81125 0
-598.523 0.767467 0
-596.849 0.723648 0
-595.177 0.674398 0
-593.505 0.629634 0
-591.83 0.583211 0
-590.159 0.531868 0
-588.486 0.480913 0
-586.815 0.42761 0
-585.146 0.376468 0
-583.477 0.323727 0
-581.808 0.266418 0
-580.136 0.211413 0
-578.467 0.153096 0
-576.799 0.095271 0
-575.131 0.0407521 0
-573.463 -0.0168084 0
-571.798 -0.0774353 0
-570.128 -0.138855 0
-568.463 -0.199517 0
-566.797 -0.260593 0
-565.131 -0.325117 0
-563.464 -0.382436 0
-561.799 -0.444583 0
-560.135 -0.502416 0
-558.47 -0.564731 0
-556.801 -0.629786 0
-555.137 -0.693623 0
-553.47 -0.754672 0
-551.806 -0.817716 0
-550.141 -0.880796 0
-548.479 -0.942561 0
-546.818 -1.00276 0
-545.156 -1.06509 0
-543.492 -1.12652 0
-541.828 -1.19038 0
-540.163 -1.2518 0
-538.502 -1.31086 0
-536.841 -1.36876 0
-535.181 -1.42543 0
-533.525 -1.48691 0
-531.862 -1.54264 0
-530.199 -1.60207 0
-528.541 -1.65601 0
-526.881 -1.71306 0
-525.217 -1.76972 0
-523.555 -1.82421 0
-521.897 -1.87936 0
-520.238 -1.9314 0
-518.58 -1.98214 0
-516.919 -2.03395 0
-515.258 -2.08589 0
-513.6 -2.13574 0
-511.943 -2.18759 0
-510.288 -2.2342 0
-508.627 -2.27973 0
-506.968 -2.32207 0
-505.309 -2.37016 0
-503.653 -2.4165 0
-501.995 -2.45845 0
-500.336 -2.50259 0
-498.679 -2.54597 0
-497.022 -2.59204 0
-495.362 -2.6282 0
-493.702 -2.66859 0
-492.046 -2.70366 0
-490.388 -2.73564 0
-488.731 -2.77526 0
-487.073 -2.81102 0
-485.417 -2.84541 0
-483.761 -2.87709 0
-482.101 -2.9044 0
-480.441 -2.93282 0
-478.783 -2.96518 0
-477.125 -2.99105 0
-475.465 -3.02442 0
-473.809 -3.04899 0
-472.153 -3.07616 0
-470.495 -3.09942 0
-468.838 -3.12118 0
-467.182 -3.14501 0
-465.523 -3.16853 0
-463.865 -3.1832 0
-462.209 -3.20113 0
-460.546 -3.2208 0
-458.891 -3.23916 0
-457.231 -3.2532 0
-455.571 -3.27006 0
-453.916 -3.27969 0
-452.256 -3.29104 0
-450.599 -3.30111 0
-448.938 -3.31479 0
-447.282 -3.32122 0
-445.622 -3.32881 0
-443.965 -3.33461 0
-442.308 -3.34572 0
-440.649 -3.35315 0
-438.992 -3.36385 0
-437.333 -3.36693 0
-435.672 -3.37104 0
-434.01 -3.37376 0
-432.351 -3.37445 0
-430.691 -3.37671 0
-429.032 -3.37519 0
-427.372 -3.37935 0
-425.713 -3.38271 0
-424.055 -3.38166 0
-422.395 -3.38204 0
-420.736 -3.37657 0
-419.078 -3.37441 0
-417.416 -3.36884 0
-415.758 -3.36167 0
-414.098 -3.35835 0
-412.438 -3.35194 0
-410.779 -3.34519 0
-409.12 -3.33553 0
-407.46 -3.32786 0
-405.793 -3.31965 0
-404.134 -3.30889 0
-402.472 -3.30424 0
-400.813 -3.29479 0
-399.151 -3.28432 0
-397.487 -3.27748 0
-395.827 -3.26366 0
-394.167 -3.25486 0
-392.507 -3.24677 0
-390.848 -3.23468 0
-389.184 -3.22734 0
-387.523 -3.21085 0
-385.862 -3.19531 0
-384.2 -3.18339 0
-382.539 -3.17255 0
-380.876 -3.15903 0
-379.209 -3.14905 0
-377.548 -3.13236 0
-375.886 -3.11779 0
-374.225 -3.1102 0
-372.565 -3.09387 0
-370.901 -3.08365 0
-369.24 -3.06685 0
-367.576 -3.0562 0
-365.912 -3.04152 0
-364.252 -3.02154 0
-362.589 -3.00654 0
-360.926 -2.99131 0
-359.264 -2.97992 0
-357.6 -2.96319 0
-355.935 -2.95328 0
-354.273 -2.93225 0
-352.609 -2.91307 0
-350.948 -2.89772 0
-349.284 -2.88465 0
-347.618 -2.87093 0
-345.954 -2.8576 0
-344.292 -2.84437 0
-342.623 -2.83497 0
-340.957 -2.81571 0
-339.292 -2.80131 0
-337.626 -2.78453 0
-335.968 -2.7729 0
-334.299 -2.75638 0
-332.636 -2.74217 0
-330.974 -2.73258 0
-329.31 -2.71701 0
-327.649 -2.70607 0
-325.983 -2.69398 0
-324.322 -2.68186 0
-322.657 -2.6661 0
-320.994 -2.6557 0
-319.33 -2.64056 0
-317.662 -2.63081 0
-316.001 -2.61228 0
-314.338 -2.59765 0
-312.672 -2.59107 0
-311.002 -2.58062 0
-309.336 -2.56879 0
-307.677 -2.55886 0
-306.008 -2.55118 0
-304.344 -2.54181 0
-302.681 -2.53217 0
-301.015 -2.52296 0
-299.351 -2.51275 0
-297.686 -2.5047 0
-296.019 -2.49619 0
-294.36 -2.48859 0
-292.695 -2.48072 0
-291.028 -2.47246 0
-289.364 -2.46836 0
-287.699 -2.45628 0
-286.03 -2.45229 0
-284.368 -2.44553 0
-282.703 -2.44228 0
-281.038 -2.43094 0
-279.369 -2.42063 0
-277.706 -2.41921 0
-276.045 -2.41518 0
-274.382 -2.40829 0
-272.713 -2.40427 0
-271.048 -2.40181 0
-269.382 -2.39871 0
-267.715 -2.39236 0
-266.05 -2.38786 0
-264.388 -2.38503 0
-262.721 -2.38499 0
-261.062 -2.38225 0
-259.397 -2.3786 0
-257.734 -2.37929 0
-256.066 -2.37547 0
-254.402 -2.38149 0
-252.738 -2.37545 0
-251.071 -2.3682 0
-249.406 -2.36807 0
-247.741 -2.36767 0
-246.076 -2.36642 0
-244.413 -2.36621 0
-242.75 -2.36319 0
-241.087 -2.36362 0
-239.423 -2.36376 0
-237.755 -2.37181 0
-236.087 -2.36796 0
-234.425 -2.3688 0
-232.759 -2.37046 0
-231.096 -2.37379 0
-229.433 -2.37608 0
-227.767 -2.37686 0
-226.107 -2.37885 0
-224.442 -2.38329 0
-222.782 -2.38118 0
-221.115 -2.38682 0
-219.452 -2.38559 0
-217.79 -2.38435 0
-216.124 -2.39196 0
-214.457 -2.39497 0
-212.795 -2.3956 0
-211.132 -2.39908 0
-209.471 -2.40704 0
-207.803 -2.40794 0
-206.14 -2.41278 0
-204.48 -2.41284 0
-202.815 -2.42098 0
-201.15 -2.42589 0
-199.486 -2.43521 0
-197.819 -2.43848 0
-196.156 -2.44758 0
-194.491 -2.44313 0
-192.829 -2.45029 0
-191.164 -2.45878 0
-189.501 -2.46531 0
-187.838 -2.48031 0
-186.178 -2.4788 0
-184.516 -2.48744 0
-182.851 -2.49855 0
-181.186 -2.50087 0
-179.52 -2.50781 0
-177.855 -2.51269 0
-176.192 -2.51675 0
-174.526 -2.52808 0
-172.867 -2.53089 0
-171.205 -2.53452 0
-169.539 -2.54485 0
-167.881 -2.54767 0
-166.214 -2.55122 0
-164.553 -2.55985 0
-162.89 -2.56672 0
-161.227 -2.57408 0
-159.565 -2.58226 0
-157.9 -2.5876 0
-156.238 -2.59014 0
-154.578 -2.59647 0
-152.912 -2.59928 0
-151.251 -2.6093 0
-149.586 -2.62145 0
-147.918 -2.63088 0
-146.257 -2.6362 0
-144.589 -2.64156 0
-142.93 -2.63794 0
-141.267 -2.64566 0
-139.606 -2.65678 0
-137.949 -2.66567 0
-136.283 -2.67328 0
-134.622 -2.68113 0
-132.96 -2.68711 0
-131.302 -2.69629 0
-129.637 -2.70311 0
-127.977 -2.71052 0
-126.313 -2.71656 0
-124.65 -2.72014 0
-122.989 -2.72521 0
-121.328 -2.73627 0
-119.664 -2.74278 0
-117.999 -2.7492 0
-116.338 -2.75946 0
-114.673 -2.76444 0
-113.012 -2.77249 0
-111.355 -2.77279 0
-109.691 -2.78193 0
-108.026 -2.79485 0
-106.363 -2.79691 0
-104.703 -2.79779 0
-103.045 -2.79942 0
-101.379 -2.80928 0
-99.7159 -2.81501 0
-98.0586 -2.81827 0
-96.3952 -2.82261 0
-94.7354 -2.82513 0
-93.0739 -2.83204 0
-91.4089 -2.83531 0
-89.7445 -2.83773 0
-88.0798 -2.84855 0
-86.4233 -2.85453 0
-84.7624 -2.86053 0
-83.0978 -2.86923 0
-81.4391 -2.87295 0
-79.7734 -2.87721 0
-78.1132 -2.88075 0
-76.4514 -2.88564 0
-74.7878 -2.88649 0
-73.1281 -2.88805 0
-71.4636 -2.89778 0
-69.8013 -2.90007 0
-68.1435 -2.90553 0
-66.4795 -2.90808 0
-64.8208 -2.9138 0
-63.1548 -2.91645 0
-61.4958 -2.91542 0
-59.8317 -2.92023 0
-58.1676 -2.92354 0
-56.5071 -2.93138 0
-54.8456 -2.93154 0
-53.1776 -2.92985 0
-51.5177 -2.93885 0
-49.857 -2.944 0
-48.1969 -2.94331 0
-46.5361 -2.94703 0
-44.8743 -2.96195 0
-43.2075 -2.96007 0
-41.5483 -2.96795 0
-39.8869 -2.96861 0
-38.2257 -2.97342 0
-36.5654 -2.97153 0
-34.902 -2.96992 0
-33.24 -2.97265 0
-31.5793 -2.973 0
-29.9157 -2.96904 0
-28.2554 -2.98076 0
-26.5899 -2.97366 0
-24.9242 -2.97418 0
-23.2635 -2.97875 0
-21.5982 -2.97984 0
-19.939 -2.98242 0
-18.2789 -2.98579 0
-16.6147 -2.98941 0
-14.9548 -2.98523 0
-13.2896 -2.99102 0
-11.6275 -2.99131 0
-9.96624 -2.99014 0
-8.30775 -2.98228 0
-6.64549 -2.98081 0
-4.98763 -2.97905 0
-3.32551 -2.98849 0
-1.66254 -2.99001 0
0 -2.98453 0
-1117.02 205.28 0
-1116.77 190.535 0
-1116.65 176.111 0
-1116.5 161.9 0
-1116.3 147.933 0
-1116.04 134.25 0
-1115.71 120.906 0
-1115.33 107.969 0
-1114.9 95.4912 0
-1114.44 83.5123 0
-1113.94 72.0572 0
-1113.41 61.1484 0
-1112.84 50.8007 0
-1112.24 41.0271 0
-1111.59 31.8319 0
-1110.93 23.2105 0
-1110.3 15.1017 0
-1109.73 7.4336 0
-1109.19 0.177048 0
-1108.64 -6.69049 0
-1108.07 -13.1592 0
-1107.48 -19.2171 0
-1106.9 -24.8654 0
-1106.3 -30.1038 0
-1105.71 -34.9494 0
-1105.11 -39.406 0
-1104.51 -43.4807 0
-1103.91 -47.1795 0
-1103.3 -50.5201 0
-1102.68 -53.5042 0
-1102.05 -56.1582 0
-1101.41 -58.4875 0
-1100.76 -60.5052 0
-1100.09 -62.2282 0
-1099.4 -63.6703 0
-1098.69 -64.8443 0
-1097.96 -65.762 0
-1097.21 -66.4438 0
-1096.42 -66.8995 0
-1095.61 -67.1451 0
-1094.77 -67.1881 0
-1093.91 -67.0456 0
-1093.01 -66.7278 0
-1092.09 -66.2425 0
-1091.13 -65.6052 0
-1090.14 -64.8262 0
-1089.12 -63.9132 0
-1088.07 -62.8755 0
-1086.99 -61.7278 0
-1085.88 -60.4791 0
-1084.74 -59.126 0
-1083.57 -57.6918 0
-1082.36 -56.1732 0
-1081.13 -54.5892 0
-1079.88 -52.9402 0
-1078.59 -51.2333 0
-1077.28 -49.4773 0
-1075.94 -47.676 0
-1074.57 -45.8361 0
-1073.18 -43.9671 0
-1071.76 -42.066 0
-1070.32 -40.1432 0
-1068.86 -38.2052 0
-1067.37 -36.2566 0
-1065.86 -34.2998 0
-1064.33 -32.3411 0
-1062.78 -30.383 0
-1061.21 -28.4262 0
-1059.62 -26.4799 0
-1058.01 -24.5442 0
-1056.39 -22.6211 0
-1054.75 -20.717 0
-1053.09 -18.832 0
-1051.41 -16.9715 0
-1049.72 -15.1349 0
-1048.02 -13.3239 0
-1046.3 -11.5428 0
-1044.57 -9.79446 0
-1042.83 -8.07441 0
-1041.08 -6.39514 0
-1039.31 -4.74653 0
-1037.54 -3.13662 0
-1035.75 -1.56554 0
-1033.96 -0.0350008 0
-1032.16 1.45691 0
-1030.35 2.90563 0
-1028.53 4.31216 0
-1026.71 5.67329 0
-1024.88 6.9928 0
-1023.05 8.26598 0
-1021.2 9.49544 0
-1019.36 10.6799 0
-1017.51 11.8182 0
-1015.65 12.9088 0
-1013.8 13.9557 0
-1011.94 14.9554 0
-1010.08 15.908 0
-1008.21 16.8148 0
-1006.34 17.6774 0
-1004.47 18.4944 0
-1002.6 19.2636 0
-1000.73 19.9868 0
-998.862 20.6643 0
-996.992 21.2951 0
-995.121 21.883 0
-993.249 22.429 0