<?xml version="1.0"?>
<VTKFile type="StructuredGrid"  version="0.1" byte_order="LittleEndian" compressor="vtkZLibDataCompressor">
  <StructuredGrid WholeExtent="0 700 0 30 0 0">
    <Piece Extent="0 700 0 30 0 0">
      <PointData Vectors="Velocity">
        <DataArray type="Float32" Name="Velocity" NumberOfComponents="3" format="ascii">
-1046.38 83.5214 0
-1046.88 74.4979 0
-1047.42 65.6041 0
-1047.98 56.9265 0
-1048.57 48.5164 0
-1049.2 40.4559 0
-1049.87 32.8216 0
-1050.55 25.6624 0
-1051.23 19.0055 0
-1051.88 12.8699 0
-1052.49 7.27594 0
-1053.05 2.24313 0
-1053.52 -2.22851 0
-1053.86 -6.2208 0
-1054.03 -9.93016 0
-1054.28 -13.4035 0
-1054.53 -16.5454 0
-1054.78 -19.3106 0
-1054.99 -21.6971 0
-1055.18 -23.7125 0
-1055.32 -25.3734 0
-1055.41 -26.6985 0
-1055.45 -27.7125 0
-1055.41 -28.4438 0
-1055.29 -28.9211 0
-1055.1 -29.1713 0
-1054.83 -29.2174 0
-1054.47 -29.0825 0
-1054.04 -28.7866 0
-1053.53 -28.3491 0
-1052.94 -27.7872 0
-1052.28 -27.1163 0
-1051.55 -26.3505 0
-1050.75 -25.5045 0
-1049.88 -24.5895 0
-1048.95 -23.6177 0
-1047.95 -22.6004 0
-1046.9 -21.5452 0
-1045.8 -20.4629 0
-1044.64 -19.3609 0
-1043.43 -18.2473 0
-1042.17 -17.1281 0
-1040.87 -16.0096 0
-1039.53 -14.8983 0
-1038.15 -13.7999 0
-1036.73 -12.7171 0
-1035.28 -11.6539 0
-1033.79 -10.6154 0
-1032.28 -9.60436 0
-1030.73 -8.62401 0
-1029.17 -7.67529 0
-1027.57 -6.76205 0
-1025.96 -5.88462 0
-1024.33 -5.0459 0
-1022.68 -4.24597 0
-1021.01 -3.4858 0
-1019.33 -2.76783 0
-1017.63 -2.0907 0
-1015.92 -1.4562 0
-1014.2 -0.863075 0
-1012.48 -0.312316 0
-1010.74 0.196859 0
-1009 0.662936 0
-1007.25 1.08952 0
-1005.5 1.47605 0
-1003.74 1.82177 0
-1001.98 2.12893 0
-1000.22 2.39708 0
-998.461 2.62862 0
-996.7 2.82222 0
-994.938 2.98167 0
-993.181 3.10861 0
-991.424 3.201 0
-989.67 3.26253 0
-987.918 3.29335 0
-986.172 3.29556 0
-984.428 3.27034 0
-982.689 3.21661 0
-980.956 3.13987 0
-979.226 3.03938 0
-977.505 2.91635 0
-975.79 2.77388 0
-974.08 2.61004 0
-972.376 2.42856 0
-970.68 2.23077 0
-968.99 2.01777 0
-967.306 1.79166 0
-965.631 1.5519 0
-963.961 1.3022 0
-962.299 1.04186 0
-960.645 0.77209 0
-958.998 0.496571 0
-957.358 0.213955 0
-955.725 -0.0731235 0
-954.098 -0.364672 0
-952.479 -0.65901 0
-950.864 -0.955857 0
-949.258 -1.2519 0
-947.656 -1.54888 0
-946.062 -1.84213 0
-944.473 -2.13761 0
-942.89 -2.42541 0
-941.31 -2.70998 0
-939.736 -2.99285 0
-938.168 -3.26885 0
-936.604 -3.53764 0
-935.045 -3.80302 0
-933.491 -4.06161 0
-931.941 -4.31171 0
-930.393 -4.55342 0
-928.849 -4.78629 0
-927.308 -5.00922 0
-925.77 -5.22421 0
-924.235 -5.42952 0
-922.701 -5.62498 0
-921.171 -5.81239 0
-919.641 -5.98498 0
-918.114 -6.14987 0
-916.59 -6.30353 0
-915.063 -6.44851 0
-913.538 -6.58017 0
-912.016 -6.70478 0
-910.493 -6.81604 0
-908.97 -6.91978 0
-907.447 -7.0108 0
-905.925 -7.09111 0
-904.401 -7.16271 0
-902.878 -7.22721 0
-901.354 -7.28015 0
-899.831 -7.32298 0
-898.305 -7.35833 0
-896.78 -7.38378 0
-895.253 -7.40062 0
-893.725 -7.40858 0
-892.196 -7.40783 0
-890.664 -7.40017 0
-889.132 -7.38419 0
-887.597 -7.36234 0
-886.061 -7.33524 0
-884.523 -7.30112 0
-882.985 -7.25777 0
-881.443 -7.21276 0
-879.901 -7.15986 0
-878.357 -7.10111 0
-876.813 -7.03961 0
-875.264 -6.97465 0
-873.714 -6.90506 0
-872.163 -6.83034 0
-870.61 -6.753 0
-869.053 -6.67512 0
-867.497 -6.59169 0
-865.938 -6.50539 0
-864.378 -6.42024 0
-862.817 -6.33294 0
-861.252 -6.24343 0
-859.685 -6.15242 0
-858.116 -6.06054 0
-856.548 -5.96594 0
-854.977 -5.87552 0
-853.407 -5.7794 0
-851.834 -5.68847 0
-850.259 -5.59543 0
-848.681 -5.50349 0
-847.102 -5.4119 0
-845.522 -5.32302 0
-843.941 -5.23416 0
-842.361 -5.14486 0
-840.777 -5.06221 0
-839.19 -4.9778 0
-837.604 -4.8983 0
-836.019 -4.82005 0
-834.432 -4.74204 0
-832.844 -4.66356 0
-831.255 -4.5926 0
-829.666 -4.52165 0
-828.075 -4.45496 0
-826.486 -4.39169 0
-824.894 -4.32906 0
-823.304 -4.27053 0
-821.709 -4.21676 0
-820.117 -4.16376 0
-818.526 -4.11197 0
-816.932 -4.06596 0
-815.339 -4.02074 0
-813.745 -3.9787 0
-812.149 -3.93994 0
-810.557 -3.90359 0
-808.963 -3.86966 0
-807.368 -3.83892 0
-805.775 -3.80987 0
-804.18 -3.7873 0
-802.587 -3.76805 0
-800.993 -3.74974 0
-799.4 -3.73418 0
-797.806 -3.72125 0
-796.213 -3.71201 0
-794.621 -3.70247 0
-793.026 -3.69877 0
-791.434 -3.69404 0
-789.841 -3.69552 0
-788.25 -3.69654 0
-786.661 -3.7 0
-785.073 -3.70418 0
-783.481 -3.71187 0
-781.892 -3.72352 0
-780.303 -3.73517 0
-778.714 -3.7496 0
-777.125 -3.76294 0
-775.537 -3.78114 0
-773.954 -3.79749 0
-772.365 -3.8177 0
-770.778 -3.83842 0
-769.192 -3.85831 0
-767.607 -3.88212 0
-766.023 -3.90605 0
-764.439 -3.9335 0
-762.855 -3.95984 0
-761.274 -3.99106 0
-759.692 -4.01899 0
-758.109 -4.046 0
-756.524 -4.07407 0
-754.946 -4.10465 0
-753.363 -4.13463 0
-751.785 -4.16665 0
-750.205 -4.19612 0
-748.627 -4.22632 0
-747.046 -4.25858 0
-745.468 -4.28857 0
-743.891 -4.32089 0
-742.315 -4.34668 0
-740.737 -4.37739 0
-739.161 -4.40665 0
-737.582 -4.4375 0
-736.007 -4.46477 0
-734.43 -4.49462 0
-732.854 -4.52007 0
-731.28 -4.55168 0
-729.706 -4.57483 0
-728.131 -4.60148 0
-726.558 -4.62823 0
-724.983 -4.65276 0
-723.409 -4.67674 0
-721.837 -4.70404 0
-720.265 -4.72516 0
-718.691 -4.74439 0
-717.117 -4.76946 0
-715.543 -4.79167 0
-713.971 -4.80646 0
-712.396 -4.82507 0
-710.824 -4.84439 0
-709.253 -4.86179 0
-707.682 -4.87782 0
-706.109 -4.89021 0
-704.536 -4.90384 0
-702.963 -4.91876 0
-701.393 -4.93173 0
-699.821 -4.94106 0
-698.25 -4.95372 0
-696.679 -4.96583 0
-695.108 -4.97304 0
-693.536 -4.9806 0
-691.961 -4.98587 0
-690.391 -4.99497 0
-688.82 -4.99824 0
-687.248 -5.00547 0
-685.676 -5.00747 0
-684.104 -5.01258 0
-682.53 -5.01293 0
-680.958 -5.01506 0
-679.386 -5.012 0
-677.812 -5.01353 0
-676.239 -5.01085 0
-674.669 -5.01042 0
-673.096 -5.01094 0
-671.524 -5.00681 0
-669.95 -5.00367 0
-668.378 -5.0004 0
-666.805 -4.99693 0
-665.231 -4.99177 0
-663.657 -4.98519 0
-662.084 -4.98138 0
-660.511 -4.97635 0
-658.936 -4.96748 0
-657.362 -4.95965 0
-655.787 -4.9525 0
-654.212 -4.94589 0
-652.639 -4.93865 0
-651.063 -4.93027 0
-649.487 -4.92232 0
-647.909 -4.91313 0
-646.336 -4.90448 0
-644.757 -4.89627 0
-643.183 -4.88644 0
-641.607 -4.87464 0
-640.032 -4.86526 0
-638.454 -4.85703 0
-636.878 -4.84991 0
-635.302 -4.8336 0
-633.727 -4.82611 0
-632.149 -4.81838 0
-630.574 -4.80486 0
-628.999 -4.79309 0
-627.421 -4.78432 0
-625.844 -4.77623 0
-624.264 -4.76826 0
-622.687 -4.75529 0
-621.109 -4.74893 0
-619.532 -4.73796 0
-617.955 -4.72676 0
-616.378 -4.71983 0
-614.8 -4.71141 0
-613.221 -4.70312 0
-611.64 -4.69011 0
-610.063 -4.68362 0
-608.486 -4.67376 0
-606.908 -4.6642 0
-605.331 -4.6573 0
-603.751 -4.65326 0
-602.174 -4.64575 0
-600.598 -4.63701 0
-599.016 -4.63445 0
-597.439 -4.62598 0
-595.862 -4.61674 0
-594.28 -4.61224 0
-592.703 -4.60374 0
-591.125 -4.59715 0
-589.548 -4.59321 0
-587.97 -4.58676 0
-586.392 -4.58336 0
-584.813 -4.58167 0
-583.234 -4.57789 0
-581.654 -4.57794 0
-580.075 -4.5695 0
-578.496 -4.57017 0
-576.917 -4.56886 0
-575.339 -4.56394 0
-573.763 -4.56435 0
-572.187 -4.56152 0
-570.604 -4.55882 0
-569.026 -4.55399 0
-567.447 -4.5519 0
-565.866 -4.5536 0
-564.286 -4.55289 0
-562.712 -4.55259 0
-561.129 -4.55072 0
-559.552 -4.54664 0
-557.972 -4.54797 0
-556.401 -4.54963 0
-554.822 -4.54745 0
-553.242 -4.5512 0
-551.667 -4.55369 0
-550.088 -4.55123 0
-548.505 -4.55301 0
-546.927 -4.55764 0
-545.353 -4.56091 0
-543.776 -4.55911 0
-542.196 -4.56484 0
-540.619 -4.56547 0
-539.041 -4.56643 0
-537.466 -4.57266 0
-535.889 -4.57135 0
-534.308 -4.57362 0
-532.728 -4.57786 0
-531.148 -4.57711 0
-529.573 -4.5841 0
-527.995 -4.58749 0
-526.423 -4.58821 0
-524.843 -4.59249 0
-523.267 -4.59485 0
-521.691 -4.60167 0
-520.114 -4.60469 0
-518.534 -4.60826 0
-516.957 -4.60903 0
-515.379 -4.61589 0
-513.805 -4.61854 0
-512.227 -4.61912 0
-510.649 -4.62147 0
-509.073 -4.62383 0
-507.495 -4.62954 0
-505.916 -4.63295 0
-504.343 -4.63508 0
-502.768 -4.63534 0
-501.189 -4.64029 0
-499.609 -4.64505 0
-498.033 -4.6513 0
-496.458 -4.65283 0
-494.88 -4.65394 0
-493.307 -4.65789 0
-491.728 -4.65995 0
-490.155 -4.66187 0
-488.579 -4.66473 0
-487.006 -4.67053 0
-485.422 -4.66995 0
-483.846 -4.67627 0
-482.271 -4.68042 0
-480.694 -4.68199 0
-479.115 -4.68468 0
-477.539 -4.68742 0
-475.963 -4.68791 0
-474.39 -4.6912 0
-472.814 -4.69591 0
-471.239 -4.6955 0
-469.663 -4.69601 0
-468.088 -4.69196 0
-466.512 -4.69863 0
-464.936 -4.70239 0
-463.359 -4.70421 0
-461.78 -4.69993 0
-460.205 -4.69977 0
-458.63 -4.7044 0
-457.053 -4.70475 0
-455.477 -4.7066 0
-453.899 -4.70613 0
-452.322 -4.70606 0
-450.747 -4.70313 0
-449.17 -4.70864 0
-447.591 -4.71262 0
-446.018 -4.70937 0
-444.444 -4.71279 0
-442.868 -4.71394 0
-441.29 -4.71511 0
-439.716 -4.71215 0
-438.14 -4.71491 0
-436.565 -4.71818 0
-434.993 -4.71302 0
-433.415 -4.71066 0
-431.839 -4.71199 0
-430.263 -4.71062 0
-428.688 -4.71001 0
-427.114 -4.71094 0
-425.54 -4.71243 0
-423.957 -4.71256 0
-422.382 -4.71297 0
-420.807 -4.70858 0
-419.23 -4.71128 0
-417.648 -4.71223 0
-416.08 -4.7091 0
-414.502 -4.70844 0
-412.922 -4.70293 0
-411.347 -4.70061 0
-409.773 -4.70054 0
-408.196 -4.69643 0
-406.617 -4.69577 0
-405.037 -4.69516 0
-403.463 -4.69381 0
-401.887 -4.68579 0
-400.312 -4.68879 0
-398.738 -4.68557 0
-397.156 -4.68602 0
-395.582 -4.69044 0
-394.007 -4.6882 0
-392.431 -4.69181 0
-390.848 -4.6877 0
-389.276 -4.68323 0
-387.698 -4.68769 0
-386.127 -4.67954 0
-384.547 -4.68214 0
-382.97 -4.68392 0
-381.398 -4.67911 0
-379.818 -4.68261 0
-378.244 -4.67972 0
-376.666 -4.67798 0
-375.088 -4.67874 0
-373.519 -4.67408 0
-371.939 -4.66622 0
-370.357 -4.66806 0
-368.785 -4.67221 0
-367.207 -4.6666 0
-365.628 -4.66782 0
-364.051 -4.66363 0
-362.475 -4.66268 0
-360.899 -4.66226 0
-359.32 -4.66478 0
-357.744 -4.66384 0
-356.17 -4.65813 0
-354.595 -4.65989 0
-353.021 -4.65648 0
-351.443 -4.65766 0
-349.868 -4.64986 0
-348.289 -4.65073 0
-346.713 -4.65049 0
-345.137 -4.65129 0
-343.558 -4.64726 0
-341.985 -4.64966 0
-340.405 -4.65093 0
-338.829 -4.65242 0
-337.259 -4.6464 0
-335.677 -4.64646 0
-334.097 -4.6508 0
-332.522 -4.65202 0
-330.95 -4.64677 0
-329.378 -4.64394 0
-327.796 -4.64434 0
-326.218 -4.6433 0
-324.646 -4.64144 0
-323.068 -4.64472 0
-321.493 -4.64469 0
-319.915 -4.63977 0
-318.335 -4.64122 0
-316.761 -4.6437 0
-315.186 -4.64428 0
-313.611 -4.64377 0
-312.032 -4.63818 0
-310.453 -4.63874 0
-308.878 -4.64524 0
-307.296 -4.64161 0
-305.723 -4.63896 0
-304.15 -4.64125 0
-302.576 -4.63407 0
-301 -4.63043 0
-299.418 -4.63558 0
-297.839 -4.634 0
-296.265 -4.63212 0
-294.691 -4.63643 0
-293.115 -4.63643 0
-291.537 -4.63979 0
-289.961 -4.63959 0
-288.387 -4.64368 0
-286.806 -4.6396 0
-285.232 -4.63652 0
-283.654 -4.64038 0
-282.079 -4.63562 0
-280.507 -4.64428 0
-278.927 -4.6452 0
-277.35 -4.64408 0
-275.771 -4.6401 0
-274.192 -4.63935 0
-272.621 -4.64262 0
-271.044 -4.64057 0
-269.47 -4.63852 0
-267.895 -4.64192 0
-266.32 -4.64501 0
-264.742 -4.63673 0
-263.169 -4.64108 0
-261.587 -4.63906 0
-260.009 -4.63851 0
-258.434 -4.63874 0
-256.857 -4.64093 0
-255.277 -4.64306 0
-253.703 -4.64225 0
-252.123 -4.63905 0
-250.547 -4.63948 0
-248.976 -4.6434 0
-247.395 -4.63755 0
-245.813 -4.6435 0
-244.243 -4.64433 0
-242.662 -4.64355 0
-241.088 -4.64512 0
-239.513 -4.64638 0
-237.938 -4.64639 0
-236.363 -4.64577 0
-234.79 -4.64406 0
-233.211 -4.64634 0
-231.636 -4.646 0
-230.061 -4.64823 0
-228.486 -4.64505 0
-226.909 -4.64876 0
-225.331 -4.64925 0
-223.758 -4.64927 0
-222.179 -4.64983 0
-220.603 -4.64947 0
-219.03 -4.65277 0
-217.452 -4.65262 0
-215.876 -4.651 0
-214.3 -4.65389 0
-212.725 -4.65426 0
-211.148 -4.65763 0
-209.571 -4.65942 0
-207.993 -4.65595 0
-206.416 -4.65304 0
-204.841 -4.65626 0
-203.266 -4.65409 0
-201.691 -4.65014 0
-200.115 -4.64912 0
-198.537 -4.65228 0
-196.965 -4.65706 0
-195.386 -4.65615 0
-193.809 -4.65535 0
-192.236 -4.6601 0
-190.658 -4.65655 0
-189.079 -4.65266 0
-187.504 -4.65683 0
-185.93 -4.65638 0
-184.351 -4.65225 0
-182.778 -4.6578 0
-181.201 -4.6563 0
-179.626 -4.66144 0
-178.047 -4.66358 0
-176.468 -4.66056 0
-174.895 -4.65855 0
-173.319 -4.65753 0
-171.752 -4.66044 0
-170.173 -4.66134 0
-168.597 -4.66137 0
-167.018 -4.66133 0
-165.444 -4.66043 0
-163.869 -4.65504 0
-162.295 -4.65386 0
-160.714 -4.65127 0
-159.135 -4.65273 0
-157.563 -4.65502 0
-155.986 -4.65476 0
-154.411 -4.65651 0
-152.833 -4.6543 0
-151.259 -4.65635 0
-149.686 -4.65504 0
-148.108 -4.65249 0
-146.53 -4.65956 0
-144.955 -4.65738 0
-143.382 -4.65958 0
-141.805 -4.65886 0
-140.229 -4.65944 0
-138.657 -4.65808 0
-137.075 -4.6562 0
-135.499 -4.65681 0
-133.922 -4.65882 0
-132.35 -4.65424 0
-130.773 -4.65219 0
-129.197 -4.65407 0
-127.624 -4.65641 0
-126.046 -4.65513 0
-124.468 -4.65563 0
-122.895 -4.65905 0
-121.316 -4.65715 0
-119.743 -4.66009 0
-118.165 -4.65876 0
-116.59 -4.65544 0
-115.016 -4.65347 0
-113.439 -4.65639 0
-111.857 -4.65667 0
-110.288 -4.6564 0
-108.713 -4.65427 0
-107.139 -4.6519 0
-105.563 -4.65382 0
-103.987 -4.65427 0
-102.409 -4.65264 0
-100.83 -4.65261 0
-99.2526 -4.65432 0
-97.6796 -4.65099 0
-96.1041 -4.65533 0
-94.5287 -4.65632 0
-92.9491 -4.65782 0
-91.3709 -4.6553 0
-89.7959 -4.65984 0
-88.2254 -4.65885 0
-86.6491 -4.66193 0
-85.076 -4.65754 0
-83.4991 -4.65988 0
-81.9243 -4.65891 0
-80.347 -4.66215 0
-78.7738 -4.66505 0
-77.2023 -4.66081 0
-75.6284 -4.66396 0
-74.0506 -4.66542 0
-72.4716 -4.66313 0
-70.8971 -4.66868 0
-69.3222 -4.66915 0
-67.7413 -4.66772 0
-66.1671 -4.66554 0
-64.5922 -4.6586 0
-63.0173 -4.65762 0
-61.4398 -4.66031 0
-59.8703 -4.66073 0
-58.293 -4.65706 0
-56.7167 -4.65633 0
-55.1403 -4.65596 0
-53.5607 -4.65463 0
-51.9801 -4.65165 0
-50.4063 -4.65849 0
-48.8309 -4.66098 0
-47.2548 -4.65002 0
-45.6804 -4.64674 0
-44.1054 -4.64747 0
-42.5309 -4.65085 0
-40.9575 -4.65087 0
-39.3853 -4.65589 0
-37.8141 -4.65707 0
-36.2352 -4.65189 0
-34.6627 -4.65428 0
-33.0877 -4.65215 0
-31.5102 -4.65068 0
-29.9376 -4.65649 0
-28.3631 -4.66 0
-26.7923 -4.64949 0
-25.2153 -4.65144 0
-23.6379 -4.65785 0
-22.0599 -4.65292 0
-20.4806 -4.64932 0
-18.9072 -4.65039 0
-17.3249 -4.6513 0
-15.7555 -4.65122 0
-14.1845 -4.65661 0
-12.6104 -4.65339 0
-11.03 -4.64993 0
-9.44992 -4.64998 0
-7.87228 -4.6493 0
-6.29791 -4.65118 0
-4.72516 -4.65399 0
-3.14894 -4.65763 0
-1.57492 -4.64902 0
0 -4.64867 0
-1055.4 84.0444 0
-1055.79 74.9646 0
-1056.17 66.0368 0
-1056.52 57.3279 0
-1056.84 48.8767 0
-1057.1 40.7574 0
-1057.32 33.0589 0
-1057.51 25.8431 0
-1057.66 19.1434 0
-1057.76 12.9793 0
-1057.79 7.37187 0
-1057.76 2.33779 0
-1057.69 -2.12853 0
-1057.64 -6.11385 0
-1057.68 -9.82999 0
-1057.64 -13.3165 0
-1057.54 -16.4651 0
-1057.41 -19.2343 0
-1057.26 -21.6192 0
-1057.08 -23.6262 0
-1056.88 -25.2686 0
-1056.64 -26.5646 0
-1056.37 -27.5392 0
-1056.05 -28.2213 0
-1055.69 -28.6421 0
-1055.28 -28.8304 0
-1054.81 -28.8115 0
-1054.28 -28.6098 0
-1053.69 -28.2474 0
-1053.05 -27.7435 0
-1052.34 -27.1151 0
-1051.58 -26.3794 0
-1050.76 -25.5511 0
-1049.88 -24.6433 0
-1048.95 -23.6691 0
-1047.97 -22.6396 0
-1046.93 -21.5666 0
-1045.85 -20.4593 0
-1044.72 -19.3275 0
-1043.55 -18.1779 0
-1042.33 -17.018 0
-1041.08 -15.8564 0
-1039.78 -14.6985 0
-1038.45 -13.5488 0
-1037.08 -12.4137 0
-1035.68 -11.2982 0
-1034.25 -10.2048 0
-1032.79 -9.13679 0
-1031.3 -8.09943 0
-1029.79 -7.09437 0
-1028.26 -6.12284 0
-1026.7 -5.18812 0
-1025.13 -4.29253 0
-1023.53 -3.43629 0
-1021.92 -2.61933 0
-1020.29 -1.84606 0
-1018.65 -1.11395 0
-1017 -0.425186 0
-1015.33 0.220556 0
-1013.65 0.82178 0
-1011.97 1.38052 0
-1010.27 1.89599 0
-1008.57 2.36851 0
-1006.86 2.79914 0
-1005.15 3.18989 0
-1003.43 3.53905 0
-1001.71 3.84801 0
-999.986 4.11662 0
-998.261 4.34847 0
-996.534 4.5432 0
-994.808 4.70117 0
-993.082 4.82634 0
-991.356 4.9164 0
-989.632 4.97537 0
-987.91 5.00364 0
-986.189 5.00259 0
-984.473 4.97265 0
-982.759 4.91525 0
-981.049 4.83385 0
-979.343 4.72823 0
-977.641 4.60055 0
-975.945 4.45127 0
-974.253 4.2826 0
-972.567 4.09512 0
-970.885 3.89048 0
-969.209 3.6715 0
-967.539 3.43948 0
-965.874 3.19378 0
-964.215 2.93701 0
-962.562 2.6706 0
-960.916 2.39466 0
-959.275 2.11232 0
-957.641 1.82307 0
-956.012 1.53038 0
-954.389 1.23266 0
-952.77 0.933218 0
-951.158 0.630597 0
-949.551 0.328865 0
-947.949 0.026242 0
-946.352 -0.273043 0
-944.76 -0.572129 0
-943.173 -0.865732 0
-941.59 -1.15485 0
-940.012 -1.44168 0
-938.437 -1.72258 0
-936.867 -1.99646 0
-935.303 -2.26557 0
-933.74 -2.52715 0
-932.182 -2.78028 0
-930.626 -3.02527 0
-929.072 -3.2607 0
-927.523 -3.4876 0
-925.976 -3.70528 0
-924.431 -3.91251 0
-922.889 -4.11047 0
-921.348 -4.29788 0
-919.809 -4.4733 0
-918.271 -4.63929 0
-916.733 -4.79404 0
-915.197 -4.93966 0
-913.662 -5.07329 0
-912.13 -5.19812 0
-910.597 -5.30888 0
-909.065 -5.4137 0
-907.532 -5.5038 0
-906 -5.58506 0
-904.468 -5.65613 0
-902.934 -5.71961 0
-901.401 -5.77305 0
-899.868 -5.81585 0
-898.333 -5.84926 0
-896.799 -5.87378 0
-895.265 -5.88951 0
-893.729 -5.89676 0
-892.192 -5.89427 0
-890.653 -5.88492 0
-889.113 -5.86801 0
-887.571 -5.84462 0
-886.03 -5.81711 0
-884.485 -5.78122 0
-882.941 -5.73746 0
-881.395 -5.68853 0
-879.847 -5.63512 0
-878.3 -5.57544 0
-876.749 -5.51275 0
-875.197 -5.44494 0
-873.644 -5.3731 0
-872.088 -5.29816 0
-870.532 -5.21928 0
-868.974 -5.13821 0
-867.414 -5.05422 0
-865.853 -4.96695 0
-864.291 -4.87928 0
-862.728 -4.79051 0
-861.162 -4.69852 0
-859.595 -4.60823 0
-858.027 -4.51354 0
-856.457 -4.41892 0
-854.887 -4.32458 0
-853.314 -4.22956 0
-851.742 -4.134 0
-850.166 -4.04102 0
-848.59 -3.94748 0
-847.012 -3.85509 0
-845.434 -3.7646 0
-843.854 -3.6746 0
-842.274 -3.58541 0
-840.693 -3.49967 0
-839.11 -3.41616 0
-837.526 -3.33444 0
-835.942 -3.2549 0
-834.357 -3.17622 0
-832.771 -3.09916 0
-831.186 -3.02618 0
-829.599 -2.95652 0
-828.012 -2.88753 0
-826.424 -2.82374 0
-824.834 -2.7606 0
-823.247 -2.70212 0
-821.657 -2.64661 0
-820.067 -2.59363 0
-818.477 -2.5423 0
-816.885 -2.49504 0
-815.296 -2.44858 0
-813.703 -2.40863 0
-812.113 -2.36811 0
-810.521 -2.33408 0
-808.931 -2.29899 0
-807.34 -2.26874 0
-805.749 -2.23945 0
-804.158 -2.21715 0
-802.567 -2.19491 0
-800.976 -2.17949 0
-799.385 -2.16285 0
-797.793 -2.1511 0
-796.203 -2.14187 0
-794.613 -2.13301 0
-793.023 -2.12841 0
-791.433 -2.12595 0
-789.844 -2.12631 0
-788.255 -2.12914 0
-786.666 -2.13238 0
-785.077 -2.13833 0
-783.489 -2.14389 0
-781.902 -2.15703 0
-780.315 -2.16751 0
-778.727 -2.18182 0
-777.141 -2.19822 0
-775.557 -2.21539 0
-773.971 -2.23293 0
-772.386 -2.25197 0
-770.8 -2.27326 0
-769.214 -2.29625 0
-767.63 -2.32048 0
-766.048 -2.34472 0
-764.464 -2.37295 0
-762.881 -2.40041 0
-761.299 -2.42952 0
-759.719 -2.45861 0
-758.138 -2.4864 0
-756.556 -2.51565 0
-754.974 -2.54562 0
-753.393 -2.5765 0
-751.815 -2.60699 0
-750.236 -2.63796 0
-748.656 -2.66996 0
-747.076 -2.70044 0
-745.496 -2.73234 0
-743.919 -2.7641 0
-742.342 -2.79141 0
-740.766 -2.82166 0
-739.189 -2.85182 0
-737.614 -2.88091 0
-736.034 -2.91088 0
-734.46 -2.94003 0
-732.883 -2.96805 0
-731.306 -2.99528 0
-729.731 -3.02272 0
-728.156 -3.04852 0
-726.582 -3.07421 0
-725.006 -3.09908 0
-723.434 -3.12552 0
-721.863 -3.14897 0
-720.286 -3.17318 0
-718.711 -3.19515 0
-717.14 -3.21742 0
-715.564 -3.23744 0
-713.988 -3.25502 0
-712.416 -3.27439 0
-710.844 -3.29377 0
-709.271 -3.31173 0
-707.696 -3.32735 0
-706.121 -3.34028 0
-704.548 -3.35401 0
-702.978 -3.36736 0
-701.405 -3.38179 0
-699.832 -3.39089 0
-698.261 -3.40252 0
-696.688 -3.41196 0
-695.115 -3.42224 0
-693.543 -3.42896 0
-691.97 -3.43539 0
-690.396 -3.44299 0
-688.826 -3.44838 0
-687.252 -3.45153 0
-685.678 -3.45547 0
-684.105 -3.46041 0
-682.532 -3.46269 0
-680.96 -3.46374 0
-679.387 -3.46109 0
-677.813 -3.46118 0
-676.241 -3.46271 0
-674.666 -3.45943 0
-673.094 -3.46033 0
-671.522 -3.45577 0
-669.948 -3.45011 0
-668.375 -3.44909 0
-666.8 -3.445 0
-665.226 -3.43735 0
-663.651 -3.43522 0
-662.078 -3.42892 0
-660.503 -3.42369 0
-658.928 -3.41669 0
-657.353 -3.40709 0
-655.78 -3.3994 0
-654.203 -3.39374 0
-652.629 -3.38479 0
-651.054 -3.37609 0
-649.479 -3.36899 0
-647.902 -3.35984 0
-646.326 -3.34994 0
-644.752 -3.34255 0
-643.173 -3.3296 0
-641.598 -3.32089 0
-640.019 -3.30964 0
-638.446 -3.30127 0
-636.869 -3.29156 0
-635.294 -3.28276 0
-633.717 -3.2722 0
-632.14 -3.26187 0
-630.564 -3.25312 0
-628.987 -3.2376 0
-627.413 -3.22919 0
-625.835 -3.21955 0
-624.258 -3.21094 0
-622.679 -3.20099 0
-621.101 -3.19069 0
-619.521 -3.18086 0
-617.946 -3.17168 0
-616.369 -3.16244 0
-614.79 -3.15447 0
-613.211 -3.14366 0
-611.634 -3.13484 0
-610.057 -3.12706 0
-608.479 -3.1177 0
-606.901 -3.10757 0
-605.325 -3.10051 0
-603.748 -3.09506 0
-602.169 -3.0895 0
-600.589 -3.0792 0
-599.011 -3.07588 0
-597.432 -3.06919 0
-595.852 -3.06272 0
-594.275 -3.05406 0
-592.697 -3.04961 0
-591.119 -3.04179 0
-589.542 -3.0356 0
-587.965 -3.02886 0
-586.388 -3.02697 0
-584.81 -3.02486 0
-583.229 -3.02132 0
-581.653 -3.0166 0
-580.073 -3.01334 0
-578.494 -3.01386 0
-576.914 -3.01191 0
-575.337 -3.00653 0
-573.759 -3.00826 0
-572.181 -3.00497 0
-570.603 -3.00056 0
-569.024 -2.99882 0
-567.447 -2.99571 0
-565.867 -2.99506 0
-564.289 -2.99596 0
-562.709 -2.99538 0
-561.13 -2.99335 0
-559.552 -2.99185 0
-557.976 -2.99315 0
-556.396 -2.99417 0
-554.82 -2.99191 0
-553.245 -2.99523 0
-551.667 -2.99566 0
-550.088 -2.9936 0
-548.509 -2.99777 0
-546.933 -2.99925 0
-545.356 -3.00241 0
-543.777 -3.00369 0
-542.2 -3.00621 0
-540.621 -3.00886 0
-539.041 -3.01132 0
-537.464 -3.01599 0
-535.887 -3.01507 0
-534.309 -3.01512 0
-532.73 -3.02123 0
-531.152 -3.02225 0
-529.576 -3.02728 0
-527.999 -3.03239 0
-526.424 -3.03361 0
-524.846 -3.03626 0
-523.269 -3.04018 0
-521.692 -3.04656 0
-520.115 -3.04807 0
-518.538 -3.05083 0
-516.962 -3.05576 0
-515.385 -3.06028 0
-513.807 -3.06155 0
-512.228 -3.06554 0
-510.651 -3.06563 0
-509.074 -3.07196 0
-507.5 -3.07488 0
-505.922 -3.07661 0
-504.345 -3.08147 0
-502.771 -3.07896 0
-501.193 -3.08411 0
-499.614 -3.0914 0
-498.036 -3.09502 0
-496.459 -3.09645 0
-494.883 -3.10195 0
-493.307 -3.10205 0
-491.73 -3.10538 0
-490.154 -3.10775 0
-488.579 -3.11037 0
-487.002 -3.11586 0
-485.428 -3.1165 0
-483.853 -3.11951 0
-482.273 -3.1248 0
-480.694 -3.12627 0
-479.118 -3.13205 0
-477.544 -3.1318 0
-475.966 -3.13229 0
-474.39 -3.13785 0
-472.817 -3.14001 0
-471.24 -3.13956 0
-469.666 -3.14264 0
-468.091 -3.1393 0
-466.513 -3.14319 0
-464.935 -3.1464 0
-463.359 -3.1481 0
-461.782 -3.14966 0
-460.206 -3.14751 0
-458.63 -3.14856 0
-457.055 -3.15068 0
-455.477 -3.15341 0
-453.901 -3.14815 0
-452.325 -3.1524 0
-450.748 -3.15239 0
-449.174 -3.15226 0
-447.596 -3.1571 0
-446.02 -3.15567 0
-444.44 -3.15764 0
-442.866 -3.15943 0
-441.292 -3.16083 0
-439.717 -3.15777 0
-438.142 -3.15901 0
-436.565 -3.16046 0
-434.99 -3.15991 0
-433.413 -3.15972 0
-431.838 -3.16096 0
-430.264 -3.15905 0
-428.687 -3.1586 0
-427.112 -3.15622 0
-425.536 -3.15637 0
-423.96 -3.15396 0
-422.38 -3.15522 0
-420.804 -3.15592 0
-419.228 -3.15559 0
-417.653 -3.15433 0
-416.074 -3.1569 0
-414.498 -3.15195 0
-412.92 -3.15109 0
-411.348 -3.14692 0
-409.772 -3.14431 0
-408.193 -3.14184 0
-406.618 -3.14065 0
-405.04 -3.13795 0
-403.464 -3.13936 0
-401.887 -3.13141 0
-400.31 -3.13351 0
-398.733 -3.13169 0
-397.157 -3.13374 0
-395.58 -3.13506 0
-394.007 -3.13104 0
-392.431 -3.13453 0
-390.852 -3.13201 0
-389.275 -3.13078 0
-387.701 -3.12872 0
-386.124 -3.12821 0
-384.549 -3.12919 0
-382.972 -3.12797 0
-381.392 -3.12473 0
-379.816 -3.12663 0
-378.24 -3.12562 0
-376.662 -3.12365 0
-375.085 -3.12385 0
-373.509 -3.12028 0
-371.935 -3.11525 0
-370.359 -3.11268 0
-368.78 -3.11413 0
-367.201 -3.11191 0
-365.624 -3.11214 0
-364.048 -3.10768 0
-362.472 -3.10647 0
-360.897 -3.10982 0
-359.32 -3.10864 0
-357.743 -3.10699 0
-356.167 -3.10639 0
-354.591 -3.10424 0
-353.014 -3.10212 0
-351.44 -3.09973 0
-349.863 -3.09679 0
-348.29 -3.09598 0
-346.713 -3.09624 0
-345.139 -3.09438 0
-343.561 -3.09045 0
-341.982 -3.09609 0
-340.408 -3.09506 0
-338.827 -3.096 0
-337.251 -3.09415 0
-335.675 -3.09041 0
-334.102 -3.09273 0
-332.524 -3.09511 0
-330.943 -3.09251 0
-329.368 -3.08978 0
-327.792 -3.08616 0
-326.217 -3.0894 0
-324.642 -3.08692 0
-323.069 -3.08994 0
-321.489 -3.08782 0
-319.913 -3.08914 0
-318.337 -3.08845 0
-316.76 -3.08678 0
-315.185 -3.08978 0
-313.606 -3.09081 0
-312.03 -3.08553 0
-310.457 -3.08038 0
-308.875 -3.08302 0
-307.3 -3.08618 0
-305.726 -3.0849 0
-304.149 -3.08558 0
-302.57 -3.08388 0
-300.994 -3.07778 0
-299.419 -3.08154 0
-297.842 -3.08171 0
-296.266 -3.07769 0
-294.691 -3.07744 0
-293.111 -3.08412 0
-291.536 -3.08585 0
-289.959 -3.08478 0
-288.385 -3.08783 0
-286.807 -3.08428 0
-285.23 -3.0861 0
-283.653 -3.08356 0
-282.08 -3.08504 0
-280.503 -3.08962 0
-278.926 -3.08742 0
-277.349 -3.08588 0
-275.772 -3.0862 0
-274.196 -3.08505 0
-272.621 -3.08543 0
-271.046 -3.08416 0
-269.467 -3.08511 0
-267.894 -3.08914 0
-266.319 -3.08826 0
-264.742 -3.0839 0
-263.168 -3.08455 0
-261.59 -3.08232 0
-260.013 -3.08298 0
-258.437 -3.0841 0
-256.864 -3.08158 0
-255.281 -3.08586 0
-253.704 -3.08716 0
-252.127 -3.086 0
-250.549 -3.08445 0
-248.97 -3.08877 0
-247.394 -3.08501 0
-245.821 -3.08672 0
-244.244 -3.09009 0
-242.669 -3.0891 0
-241.091 -3.09384 0
-239.517 -3.09123 0
-237.938 -3.09053 0
-236.362 -3.09616 0
-234.79 -3.09019 0
-233.212 -3.09179 0
-231.636 -3.09317 0
-230.06 -3.09074 0
-228.483 -3.09386 0
-226.91 -3.09304 0
-225.334 -3.0944 0
-223.755 -3.09729 0
-222.183 -3.09475 0
-220.606 -3.09491 0
-219.028 -3.0984 0
-217.453 -3.09801 0
-215.878 -3.09824 0
-214.299 -3.09927 0
-212.727 -3.0998 0
-211.152 -3.1023 0
-209.572 -3.10152 0
-207.996 -3.10122 0
-206.42 -3.09862 0
-204.84 -3.10027 0
-203.267 -3.10033 0
-201.69 -3.09697 0
-200.117 -3.0972 0
-198.541 -3.10065 0
-196.965 -3.10199 0
-195.388 -3.09955 0
-193.813 -3.09944 0
-192.233 -3.10311 0
-190.657 -3.10014 0
-189.082 -3.09747 0
-187.503 -3.10169 0
-185.927 -3.10188 0
-184.354 -3.10159 0
-182.78 -3.10272 0
-181.205 -3.10228 0
-179.626 -3.10487 0
-178.048 -3.1041 0
-176.471 -3.10662 0
-174.894 -3.10572 0
-173.322 -3.1061 0
-171.748 -3.10808 0
-170.175 -3.10515 0
-168.596 -3.10776 0
-167.02 -3.10487 0
-165.445 -3.10521 0
-163.868 -3.10498 0
-162.291 -3.1008 0
-160.715 -3.09959 0
-159.136 -3.0981 0
-157.563 -3.09757 0
-155.988 -3.09941 0
-154.41 -3.09816 0
-152.835 -3.09921 0
-151.259 -3.10599 0
-149.685 -3.09868 0
-148.109 -3.09642 0
-146.536 -3.10348 0
-144.959 -3.10312 0
-143.382 -3.10638 0
-141.804 -3.10378 0
-140.229 -3.10683 0
-138.654 -3.10379 0
-137.079 -3.09987 0
-135.499 -3.1016 0
-133.92 -3.10283 0
-132.345 -3.10372 0
-130.772 -3.10057 0
-129.199 -3.10314 0
-127.623 -3.10212 0
-126.048 -3.09946 0
-124.473 -3.10177 0
-122.896 -3.10355 0
-121.322 -3.10323 0
-119.745 -3.1033 0
-118.167 -3.10381 0
-116.59 -3.10244 0
-115.014 -3.10012 0
-113.438 -3.09939 0
-111.863 -3.10105 0
-110.288 -3.09991 0
-108.711 -3.09874 0
-107.135 -3.09945 0
-105.561 -3.10066 0
-103.987 -3.09903 0
-102.407 -3.1007 0
-100.834 -3.0984 0
-99.2606 -3.09913 0
-97.682 -3.09816 0
-96.1061 -3.09993 0
-94.5295 -3.10081 0
-92.9564 -3.10496 0
-91.3786 -3.09941 0
-89.8028 -3.10497 0
-88.2263 -3.10709 0
-86.648 -3.10433 0
-85.0721 -3.1064 0
-83.4991 -3.10652 0
-81.9253 -3.106 0
-80.3517 -3.1088 0
-78.7744 -3.10943 0
-77.2017 -3.10694 0
-75.6233 -3.11013 0
-74.0478 -3.10592 0
-72.4711 -3.10679 0
-70.8934 -3.10921 0
-69.3148 -3.10914 0
-67.7429 -3.10932 0
-66.1699 -3.10875 0
-64.5907 -3.10765 0
-63.0158 -3.10693 0
-61.4411 -3.1065 0
-59.8655 -3.10618 0
-58.288 -3.10279 0
-56.7131 -3.10128 0
-55.1376 -3.10244 0
-53.5624 -3.09899 0
-51.9902 -3.09943 0
-50.4109 -3.10244 0
-48.8293 -3.10338 0
-47.2541 -3.09865 0
-45.6792 -3.09552 0
-44.11 -3.09555 0
-42.5349 -3.09782 0
-40.9587 -3.09994 0
-39.3869 -3.10262 0
-37.8113 -3.10539 0
-36.2398 -3.09976 0
-34.6659 -3.10215 0
-33.0925 -3.09782 0
-31.5158 -3.10154 0
-29.9414 -3.10334 0
-28.3608 -3.10457 0
-26.7841 -3.10125 0
-25.2113 -3.09658 0
-23.6364 -3.09876 0
-22.0545 -3.10059 0
-20.4822 -3.09923 0
-18.9086 -3.09629 0
-17.3312 -3.09586 0
-15.7568 -3.09702 0
-14.1784 -3.09707 0
-12.6048 -3.09752 0
-11.0294 -3.09381 0
-9.45251 -3.09562 0
-7.87655 -3.09664 0
-6.30196 -3.09866 0
-4.72651 -3.0966 0
-3.1526 -3.09664 0
-1.57714 -3.09556 0
0 -3.09454 0
-1064.68 84.9386 0
-1064.66 75.6124 0
-1064.81 66.6703 0
-1064.91 57.9691 0
-1064.92 49.5394 0
-1064.84 41.4369 0
-1064.66 33.7356 0
-1064.41 26.5039 0
-1064.08 19.7887 0
-1063.69 13.6167 0
-1063.24 8.00798 0
-1062.74 2.96046 0
-1062.24 -1.56536 0
-1061.81 -5.68554 0
-1061.44 -9.46005 0
-1061.07 -12.9024 0
-1060.65 -16.0259 0
-1060.17 -18.7887 0
-1059.65 -21.1745 0
-1059.11 -23.1824 0
-1058.56 -24.822 0
-1057.99 -26.1102 0
-1057.4 -27.0718 0
-1056.8 -27.7336 0
-1056.18 -28.1259 0
-1055.54 -28.2794 0
-1054.86 -28.2204 0
-1054.15 -27.9747 0
-1053.4 -27.5649 0
-1052.62 -27.0129 0
-1051.79 -26.3347 0
-1050.92 -25.5494 0
-1050.01 -24.6715 0
-1049.06 -23.7151 0
-1048.06 -22.6923 0
-1047.02 -21.6163 0
-1045.94 -20.4988 0
-1044.83 -19.3476 0
-1043.67 -18.1732 0
-1042.48 -16.9833 0
-1041.26 -15.7852 0
-1040 -14.5872 0
-1038.7 -13.3938 0
-1037.38 -12.212 0
-1036.03 -11.0459 0
-1034.64 -9.90028 0
-1033.23 -8.77943 0
-1031.8 -7.68615 0
-1030.34 -6.62503 0
-1028.86 -5.59699 0
-1027.36 -4.60457 0
-1025.84 -3.65035 0
-1024.3 -2.73658 0
-1022.74 -1.86427 0
-1021.17 -1.03247 0
-1019.58 -0.244445 0
-1017.98 0.499638 0
-1016.36 1.20041 0
-1014.74 1.85533 0
-1013.1 2.46615 0
-1011.45 3.0332 0
-1009.8 3.55554 0
-1008.14 4.03475 0
-1006.47 4.47109 0
-1004.8 4.86569 0
-1003.12 5.21872 0
-1001.43 5.53021 0
-999.746 5.80166 0
-998.056 6.03459 0
-996.364 6.22981 0
-994.671 6.38803 0
-992.977 6.51261 0
-991.283 6.60248 0
-989.588 6.65974 0
-987.895 6.68608 0
-986.203 6.68349 0
-984.512 6.65065 0
-982.823 6.58931 0
-981.137 6.50456 0
-979.453 6.39606 0
-977.773 6.26413 0
-976.095 6.11116 0
-974.422 5.93745 0
-972.752 5.74592 0
-971.086 5.53666 0
-969.423 5.3139 0
-967.766 5.07615 0
-966.114 4.82512 0
-964.465 4.56271 0
-962.821 4.29102 0
-961.182 4.01093 0
-959.548 3.72232 0
-957.918 3.42858 0
-956.294 3.13085 0
-954.673 2.82772 0
-953.057 2.52347 0
-951.446 2.21637 0
-949.839 1.91031 0
-948.237 1.60419 0
-946.638 1.29803 0
-945.044 0.995973 0
-943.452 0.698773 0
-941.866 0.403388 0
-940.283 0.113546 0
-938.704 -0.170362 0