<?xml version="1.0"?>
<VTKFile type="StructuredGrid"  version="0.1" byte_order="LittleEndian" compressor="vtkZLibDataCompressor">
  <StructuredGrid WholeExtent="0 700 0 30 0 0">
    <Piece Extent="0 700 0 30 0 0">
      <PointData Vectors="Velocity">
        <DataArray type="Float32" Name="Velocity" NumberOfComponents="3" format="ascii">
-1084.76 252.095 0
-1084.93 235.672 0
-1085.16 219.366 0
-1085.42 203.258 0
-1085.71 187.398 0
-1086.03 171.837 0
-1086.41 156.631 0
-1086.84 141.841 0
-1087.32 127.507 0
-1087.82 113.656 0
-1088.34 100.31 0
-1088.86 87.4885 0
-1089.38 75.1998 0
-1089.89 63.4547 0
-1090.38 52.2637 0
-1090.84 41.6323 0
-1091.27 31.5641 0
-1091.62 22.0525 0
-1091.85 13.0307 0
-1092.09 4.42529 0
-1092.34 -3.75729 0
-1092.58 -11.5065 0
-1092.81 -18.8259 0
-1093.03 -25.7209 0
-1093.23 -32.2052 0
-1093.42 -38.2817 0
-1093.59 -43.9633 0
-1093.75 -49.2592 0
-1093.89 -54.1812 0
-1094 -58.7362 0
-1094.1 -62.9308 0
-1094.16 -66.7776 0
-1094.21 -70.2916 0
-1094.22 -73.4771 0
-1094.2 -76.3482 0
-1094.15 -78.9092 0
-1094.06 -81.1794 0
-1093.92 -83.1656 0
-1093.75 -84.8808 0
-1093.54 -86.3343 0
-1093.29 -87.5366 0
-1092.98 -88.5057 0
-1092.64 -89.2416 0
-1092.25 -89.7669 0
-1091.81 -90.0835 0
-1091.33 -90.2007 0
-1090.8 -90.1385 0
-1090.22 -89.9002 0
-1089.6 -89.4932 0
-1088.93 -88.9321 0
-1088.21 -88.2258 0
-1087.45 -87.3785 0
-1086.64 -86.399 0
-1085.8 -85.2971 0
-1084.91 -84.0852 0
-1083.97 -82.7679 0
-1083 -81.3544 0
-1081.98 -79.8466 0
-1080.92 -78.2577 0
-1079.82 -76.587 0
-1078.69 -74.8511 0
-1077.52 -73.0487 0
-1076.31 -71.1871 0
-1075.06 -69.2739 0
-1073.78 -67.315 0
-1072.47 -65.3148 0
-1071.12 -63.2781 0
-1069.75 -61.2065 0
-1068.34 -59.1121 0
-1066.9 -56.9925 0
-1065.43 -54.8569 0
-1063.94 -52.7044 0
-1062.41 -50.5434 0
-1060.86 -48.377 0
-1059.29 -46.2094 0
-1057.69 -44.0414 0
-1056.07 -41.8783 0
-1054.42 -39.7201 0
-1052.76 -37.5702 0
-1051.07 -35.4361 0
-1049.36 -33.316 0
-1047.64 -31.2121 0
-1045.89 -29.1287 0
-1044.14 -27.0676 0
-1042.36 -25.031 0
-1040.57 -23.0213 0
-1038.76 -21.0401 0
-1036.94 -19.0845 0
-1035.11 -17.1619 0
-1033.26 -15.2747 0
-1031.4 -13.4184 0
-1029.53 -11.5999 0
-1027.65 -9.81247 0
-1025.76 -8.06754 0
-1023.86 -6.36354 0
-1021.95 -4.6922 0
-1020.03 -3.06664 0
-1018.11 -1.47973 0
-1016.17 0.0649089 0
-1014.24 1.56634 0
-1012.29 3.02247 0
-1010.35 4.4382 0
-1008.39 5.81067 0
-1006.43 7.13744 0
-1004.47 8.42149 0
-1002.5 9.66049 0
-1000.54 10.8558 0
-998.565 12.0021 0
-996.592 13.1046 0
-994.617 14.1616 0
-992.641 15.1726 0
-990.664 16.1393 0
-988.686 17.0616 0
-986.708 17.9394 0
-984.732 18.772 0
-982.756 19.5603 0
-980.779 20.3032 0
-978.807 21.0032 0
-976.834 21.6604 0
-974.862 22.2721 0
-972.895 22.84 0
-970.929 23.3695 0
-968.963 23.8549 0
-967.002 24.299 0
-965.044 24.7065 0
-963.09 25.0697 0
-961.141 25.3969 0
-959.193 25.6814 0
-957.251 25.9269 0
-955.313 26.1373 0
-953.379 26.3099 0
-951.451 26.4479 0
-949.526 26.5498 0
-947.605 26.617 0
-945.688 26.6474 0
-943.781 26.643 0
-941.877 26.6096 0
-939.98 26.5441 0
-938.088 26.4484 0
-936.202 26.3236 0
-934.322 26.1688 0
-932.447 25.9847 0
-930.575 25.7725 0
-928.712 25.5353 0
-926.854 25.2716 0
-925.004 24.983 0
-923.158 24.6709 0
-921.319 24.3322 0
-919.486 23.9745 0
-917.657 23.5933 0
-915.835 23.1928 0
-914.02 22.7749 0
-912.213 22.335 0
-910.412 21.8791 0
-908.614 21.4031 0
-906.825 20.9107 0
-905.04 20.4021 0
-903.264 19.8805 0
-901.493 19.3468 0
-899.727 18.8 0
-897.968 18.2416 0
-896.213 17.6685 0
-894.465 17.0866 0
-892.722 16.4957 0
-890.985 15.8945 0
-889.255 15.2877 0
-887.531 14.6733 0
-885.809 14.0509 0
-884.094 13.4232 0
-882.384 12.7919 0
-880.68 12.1572 0
-878.979 11.5179 0
-877.285 10.8746 0
-875.595 10.2307 0
-873.91 9.585 0
-872.227 8.937 0
-870.551 8.28977 0
-868.881 7.64562 0
-867.214 7.00182 0
-865.549 6.36003 0
-863.889 5.72041 0
-862.235 5.08244 0
-860.584 4.44973 0
-858.938 3.82122 0
-857.293 3.19629 0
-855.653 2.57517 0
-854.013 1.95994 0
-852.377 1.34926 0
-850.747 0.748146 0
-849.12 0.154169 0
-847.493 -0.433886 0
-845.872 -1.01498 0
-844.254 -1.58867 0
-842.637 -2.15211 0
-841.02 -2.70764 0
-839.409 -3.25167 0
-837.8 -3.79132 0
-836.192 -4.31747 0
-834.585 -4.83737 0
-832.982 -5.34401 0
-831.379 -5.84154 0
-829.779 -6.32631 0
-828.179 -6.79971 0
-826.583 -7.26514 0
-824.986 -7.71565 0
-823.388 -8.16091 0
-821.796 -8.58965 0
-820.202 -9.00666 0
-818.611 -9.41451 0
-817.02 -9.80762 0
-815.429 -10.1905 0
-813.841 -10.5617 0
-812.253 -10.9154 0
-810.663 -11.2585 0
-809.075 -11.5908 0
-807.487 -11.9126 0
-805.9 -12.2214 0
-804.312 -12.5145 0
-802.724 -12.7996 0
-801.138 -13.0701 0
-799.549 -13.3292 0
-797.962 -13.577 0
-796.377 -13.8078 0
-794.787 -14.0328 0
-793.197 -14.2405 0
-791.606 -14.4391 0
-790.017 -14.6262 0
-788.429 -14.7969 0
-786.838 -14.9622 0
-785.244 -15.1135 0
-783.653 -15.2544 0
-782.061 -15.38 0
-780.465 -15.4995 0
-778.87 -15.6028 0
-777.272 -15.6984 0
-775.675 -15.7806 0
-774.078 -15.8551 0
-772.479 -15.9173 0
-770.88 -15.9697 0
-769.282 -16.0137 0
-767.677 -16.049 0
-766.072 -16.0707 0
-764.471 -16.0842 0
-762.862 -16.0864 0
-761.255 -16.0811 0
-759.646 -16.0689 0
-758.036 -16.0463 0
-756.424 -16.0126 0
-754.813 -15.9734 0
-753.196 -15.9252 0
-751.581 -15.869 0
-749.963 -15.8045 0
-748.345 -15.7287 0
-746.726 -15.6552 0
-745.102 -15.5697 0
-743.479 -15.479 0
-741.856 -15.3773 0
-740.229 -15.2712 0
-738.6 -15.1616 0
-736.972 -15.0416 0
-735.341 -14.9204 0
-733.709 -14.7932 0
-732.075 -14.658 0
-730.442 -14.5185 0
-728.803 -14.3751 0
-727.165 -14.2264 0
-725.524 -14.0747 0
-723.883 -13.9163 0
-722.24 -13.7606 0
-720.597 -13.5955 0
-718.952 -13.4285 0
-717.306 -13.2574 0
-715.659 -13.0823 0
-714.01 -12.908 0
-712.355 -12.7306 0
-710.702 -12.5503 0
-709.051 -12.3659 0
-707.398 -12.1781 0
-705.741 -11.9886 0
-704.083 -11.8031 0
-702.426 -11.611 0
-700.765 -11.4202 0
-699.106 -11.225 0
-697.446 -11.0302 0
-695.782 -10.8328 0
-694.116 -10.6359 0
-692.45 -10.4374 0
-690.785 -10.2457 0
-689.116 -10.051 0
-687.444 -9.85494 0
-685.775 -9.66128 0
-684.104 -9.45991 0
-682.427 -9.26133 0
-680.753 -9.06878 0
-679.079 -8.87296 0
-677.404 -8.6775 0
-675.726 -8.48618 0
-674.049 -8.29549 0
-672.371 -8.10395 0
-670.694 -7.91577 0
-669.012 -7.72982 0
-667.331 -7.5444 0
-665.647 -7.36238 0
-663.965 -7.18163 0
-662.281 -7.00243 0
-660.598 -6.82334 0
-658.912 -6.64935 0
-657.225 -6.47387 0
-655.539 -6.30334 0
-653.855 -6.13349 0
-652.169 -5.97085 0
-650.48 -5.80929 0
-648.792 -5.64777 0
-647.106 -5.48853 0
-645.42 -5.33359 0
-643.73 -5.18101 0
-642.039 -5.03056 0
-640.347 -4.88549 0
-638.653 -4.73743 0
-636.963 -4.60123 0
-635.27 -4.46281 0
-633.58 -4.33207 0
-631.89 -4.20728 0
-630.197 -4.07893 0
-628.503 -3.95858 0
-626.806 -3.83071 0
-625.116 -3.71823 0
-623.423 -3.60403 0
-621.729 -3.49448 0
-620.035 -3.39077 0
-618.343 -3.28548 0
-616.65 -3.18424 0
-614.951 -3.09014 0
-613.262 -3.00107 0
-611.568 -2.9113 0
-609.872 -2.82856 0
-608.177 -2.74757 0
-606.487 -2.67301 0
-604.793 -2.5958 0
-603.1 -2.52439 0
-601.403 -2.45282 0
-599.709 -2.39273 0
-598.018 -2.33273 0
-596.325 -2.27729 0
-594.634 -2.22536 0
-592.937 -2.1769 0
-591.246 -2.1307 0
-589.553 -2.08458 0
-587.86 -2.04418 0
-586.169 -2.00456 0
-584.475 -1.96885 0
-582.781 -1.94008 0
-581.093 -1.91212 0
-579.401 -1.88642 0
-577.707 -1.86857 0
-576.014 -1.85105 0
-574.322 -1.8398 0
-572.636 -1.83003 0
-570.946 -1.82184 0
-569.251 -1.81433 0
-567.566 -1.81066 0
-565.871 -1.81263 0
-564.181 -1.81806 0
-562.496 -1.82374 0
-560.808 -1.82953 0
-559.118 -1.84168 0
-557.435 -1.85406 0
-555.743 -1.87394 0
-554.06 -1.89535 0
-552.376 -1.9188 0
-550.691 -1.94327 0
-549.004 -1.9646 0
-547.314 -1.99563 0
-545.628 -2.0291 0
-543.946 -2.06609 0
-542.26 -2.09925 0
-540.577 -2.13414 0
-538.89 -2.17001 0
-537.21 -2.21417 0
-535.527 -2.25581 0
-533.843 -2.30296 0
-532.161 -2.35283 0
-530.477 -2.39578 0
-528.795 -2.45272 0
-527.119 -2.49932 0
-525.436 -2.552 0
-523.757 -2.60688 0
-522.078 -2.6659 0
-520.399 -2.72198 0
-518.718 -2.77918 0
-517.039 -2.83893 0
-515.36 -2.89989 0
-513.685 -2.96497 0
-512.011 -3.02838 0
-510.334 -3.08998 0
-508.655 -3.15652 0
-506.981 -3.22894 0
-505.305 -3.29408 0
-503.629 -3.35434 0
-501.955 -3.42862 0
-500.277 -3.49511 0
-498.601 -3.57077 0
-496.934 -3.63733 0
-495.264 -3.70907 0
-493.585 -3.78521 0
-491.914 -3.85375 0
-490.243 -3.91929 0
-488.571 -3.99331 0
-486.898 -4.07242 0
-485.229 -4.14448 0
-483.557 -4.21585 0
-481.88 -4.2928 0
-480.214 -4.36636 0
-478.539 -4.43625 0
-476.877 -4.5103 0
-475.204 -4.58503 0
-473.536 -4.66155 0
-471.863 -4.73302 0
-470.196 -4.8131 0
-468.53 -4.88981 0
-466.863 -4.95961 0
-465.192 -5.03087 0
-463.525 -5.10705 0
-461.859 -5.179 0
-460.189 -5.25263 0
-458.525 -5.32313 0
-456.859 -5.39471 0
-455.193 -5.46599 0
-453.52 -5.53401 0
-451.854 -5.60838 0
-450.188 -5.68253 0
-448.52 -5.74643 0
-446.854 -5.8194 0
-445.186 -5.88742 0
-443.519 -5.95845 0
-441.861 -6.02603 0
-440.193 -6.08824 0
-438.531 -6.15352 0
-436.867 -6.21967 0
-435.202 -6.28392 0
-433.541 -6.34598 0
-431.877 -6.40751 0
-430.214 -6.47727 0
-428.553 -6.5312 0
-426.888 -6.59033 0
-425.223 -6.64641 0
-423.561 -6.70505 0
-421.896 -6.76644 0
-420.231 -6.82019 0
-418.567 -6.87153 0
-416.908 -6.92836 0
-415.246 -6.98279 0
-413.582 -7.04201 0
-411.923 -7.09145 0
-410.261 -7.14074 0
-408.594 -7.19192 0
-406.933 -7.24348 0
-405.276 -7.28744 0
-403.613 -7.33344 0
-401.945 -7.37703 0
-400.282 -7.4113 0
-398.623 -7.45709 0
-396.958 -7.50083 0
-395.295 -7.54723 0
-393.629 -7.58517 0
-391.967 -7.62387 0
-390.31 -7.66108 0
-388.642 -7.70391 0
-386.982 -7.74077 0
-385.325 -7.78021 0
-383.66 -7.81449 0
-381.998 -7.84213 0
-380.33 -7.87166 0
-378.671 -7.90637 0
-377.013 -7.9301 0
-375.356 -7.95443 0
-373.691 -7.98377 0
-372.026 -8.00906 0
-370.361 -8.0361 0
-368.701 -8.06265 0
-367.037 -8.08446 0
-365.372 -8.10688 0
-363.705 -8.13674 0
-362.043 -8.14988 0
-360.383 -8.17301 0
-358.719 -8.1927 0
-357.054 -8.21547 0
-355.396 -8.22595 0
-353.727 -8.24766 0
-352.064 -8.25839 0
-350.407 -8.28497 0
-348.74 -8.29051 0
-347.076 -8.30226 0
-345.415 -8.31354 0
-343.75 -8.32841 0
-342.089 -8.33956 0
-340.425 -8.34877 0
-338.76 -8.35429 0
-337.094 -8.36088 0
-335.43 -8.36688 0
-333.758 -8.38085 0
-332.091 -8.38804 0
-330.425 -8.3929 0
-328.76 -8.38785 0
-327.099 -8.39312 0
-325.432 -8.39515 0
-323.77 -8.3982 0
-322.107 -8.40438 0
-320.439 -8.40537 0
-318.784 -8.40258 0
-317.109 -8.4079 0
-315.442 -8.40635 0
-313.775 -8.40606 0
-312.113 -8.39994 0
-310.455 -8.40046 0
-308.79 -8.40106 0
-307.123 -8.40363 0
-305.453 -8.38985 0
-303.786 -8.38855 0
-302.121 -8.38111 0
-300.45 -8.37902 0
-298.788 -8.36636 0
-297.12 -8.36167 0
-295.455 -8.3607 0
-293.787 -8.35013 0
-292.125 -8.33945 0
-290.454 -8.33751 0
-288.784 -8.32918 0
-287.12 -8.32495 0
-285.454 -8.31616 0
-283.792 -8.30195 0
-282.126 -8.29793 0
-280.46 -8.28469 0
-278.791 -8.26741 0
-277.127 -8.26219 0
-275.455 -8.24946 0
-273.786 -8.23935 0
-272.118 -8.23075 0
-270.452 -8.21593 0
-268.779 -8.20541 0
-267.112 -8.19166 0
-265.45 -8.18441 0
-263.777 -8.16683 0
-262.116 -8.15739 0
-260.446 -8.14762 0
-258.782 -8.13285 0
-257.107 -8.1194 0
-255.437 -8.1092 0
-253.768 -8.09139 0
-252.098 -8.07702 0
-250.43 -8.06137 0
-248.761 -8.05002 0
-247.092 -8.03884 0
-245.423 -8.02732 0
-243.761 -8.01273 0
-242.088 -8.00183 0
-240.421 -7.98175 0
-238.753 -7.96644 0
-237.083 -7.95436 0
-235.417 -7.94236 0
-233.749 -7.92216 0
-232.081 -7.91548 0
-230.416 -7.89739 0
-228.737 -7.89216 0
-227.073 -7.88112 0
-225.401 -7.86329 0
-223.726 -7.8489 0
-222.057 -7.83832 0
-220.396 -7.82023 0
-218.72 -7.80734 0
-217.053 -7.7933 0
-215.379 -7.77792 0
-213.708 -7.77076 0
-212.039 -7.75601 0
-210.364 -7.74445 0
-208.688 -7.73109 0
-207.022 -7.71933 0
-205.353 -7.70046 0
-203.68 -7.69822 0
-202.011 -7.68977 0
-200.34 -7.67793 0
-198.675 -7.66287 0
-197.009 -7.65049 0
-195.339 -7.64018 0
-193.67 -7.63214 0
-191.995 -7.61714 0
-190.323 -7.60457 0
-188.655 -7.5997 0
-186.978 -7.5826 0
-185.308 -7.57206 0
-183.641 -7.56369 0
-181.972 -7.54641 0
-180.302 -7.54164 0
-178.633 -7.53376 0
-176.964 -7.52744 0
-175.299 -7.52216 0
-173.624 -7.50471 0
-171.954 -7.50467 0
-170.287 -7.48644 0
-168.61 -7.4857 0
-166.938 -7.47134 0
-165.265 -7.4661 0
-163.598 -7.4489 0
-161.928 -7.44649 0
-160.264 -7.44218 0
-158.588 -7.43937 0
-156.914 -7.43874 0
-155.241 -7.42677 0
-153.574 -7.41965 0
-151.9 -7.40966 0
-150.228 -7.40701 0
-148.555 -7.39795 0
-146.887 -7.39194 0
-145.218 -7.38082 0
-143.553 -7.3811 0
-141.883 -7.3757 0
-140.211 -7.36833 0
-138.532 -7.36265 0
-136.867 -7.36066 0
-135.199 -7.36035 0
-133.523 -7.35389 0
-131.855 -7.35089 0
-130.187 -7.34949 0
-128.519 -7.34228 0
-126.855 -7.33598 0
-125.189 -7.33383 0
-123.511 -7.33913 0
-121.841 -7.33266 0
-120.171 -7.32372 0
-118.494 -7.32563 0
-116.826 -7.32769 0
-115.158 -7.32474 0
-113.491 -7.31596 0
-111.82 -7.31095 0
-110.158 -7.30578 0
-108.487 -7.30576 0
-106.81 -7.29404 0
-105.14 -7.29228 0
-103.476 -7.29313 0
-101.813 -7.29253 0
-100.141 -7.29166 0
-98.4696 -7.2939 0
-96.8002 -7.29276 0
-95.1282 -7.29484 0
-93.4617 -7.29268 0
-91.7892 -7.29229 0
-90.1214 -7.29015 0
-88.448 -7.29301 0
-86.7864 -7.28668 0
-85.113 -7.28717 0
-83.4457 -7.28312 0
-81.7753 -7.29164 0
-80.1073 -7.28386 0
-78.4361 -7.29378 0
-76.7708 -7.28661 0
-75.0994 -7.28717 0
-73.4272 -7.29179 0
-71.756 -7.29177 0
-70.0897 -7.28519 0
-68.4246 -7.28357 0
-66.755 -7.28498 0
-65.0898 -7.28367 0
-63.4154 -7.27337 0
-61.7442 -7.27852 0
-60.0766 -7.27121 0
-58.4054 -7.2753 0
-56.7317 -7.27448 0
-55.0707 -7.27569 0
-53.4049 -7.27877 0
-51.7319 -7.27672 0
-50.0653 -7.2767 0
-48.3922 -7.27895 0
-46.7191 -7.28307 0
-45.0533 -7.2841 0
-43.3814 -7.281 0
-41.7104 -7.28205 0
-40.0455 -7.28735 0
-38.3777 -7.28867 0
-36.7137 -7.29407 0
-35.0503 -7.29599 0
-33.3789 -7.3006 0
-31.7096 -7.29642 0
-30.0378 -7.29658 0
-28.3695 -7.29363 0
-26.7012 -7.29103 0
-25.0357 -7.29381 0
-23.367 -7.28844 0
-21.6954 -7.29531 0
-20.0242 -7.28352 0
-18.3576 -7.28672 0
-16.6861 -7.28332 0
-15.0162 -7.28799 0
-13.3545 -7.28607 0
-11.6818 -7.28417 0
-10.0122 -7.28791 0
-8.34132 -7.29344 0
-6.67307 -7.28877 0
-5.00781 -7.29007 0
-3.3378 -7.29491 0
-1.66509 -7.29567 0
0 -7.29919 0
-1101.18 252.298 0
-1101.25 235.837 0
-1101.33 219.509 0
-1101.38 203.388 0
-1101.42 187.515 0
-1101.44 171.929 0
-1101.44 156.691 0
-1101.43 141.865 0
-1101.43 127.497 0
-1101.44 113.62 0
-1101.43 100.256 0
-1101.42 87.4257 0
-1101.39 75.1374 0
-1101.34 63.4006 0
-1101.27 52.222 0
-1101.15 41.6095 0
-1101 31.5688 0
-1100.82 22.092 0
-1100.68 13.0809 0
-1100.51 4.47143 0
-1100.33 -3.71285 0
-1100.14 -11.4618 0
-1099.95 -18.7816 0
-1099.75 -25.6771 0
-1099.54 -32.1577 0
-1099.33 -38.2312 0
-1099.12 -43.9065 0
-1098.89 -49.1953 0
-1098.66 -54.1056 0
-1098.41 -58.6475 0
-1098.15 -62.8287 0
-1097.88 -66.6615 0
-1097.59 -70.1517 0
-1097.28 -73.3149 0
-1096.95 -76.1588 0
-1096.59 -78.694 0
-1096.21 -80.9324 0
-1095.8 -82.8883 0
-1095.36 -84.5669 0
-1094.89 -85.9844 0
-1094.39 -87.1518 0
-1093.86 -88.0776 0
-1093.29 -88.7787 0
-1092.68 -89.2615 0
-1092.04 -89.5371 0
-1091.37 -89.6177 0
-1090.66 -89.5125 0
-1089.91 -89.2309 0
-1089.13 -88.7829 0
-1088.31 -88.1813 0
-1087.45 -87.431 0
-1086.55 -86.5441 0
-1085.62 -85.5255 0
-1084.65 -84.3853 0
-1083.65 -83.1344 0
-1082.62 -81.7783 0
-1081.55 -80.3255 0
-1080.44 -78.7792 0
-1079.3 -77.1511 0
-1078.13 -75.4471 0
-1076.93 -73.6761 0
-1075.7 -71.8392 0
-1074.43 -69.9438 0
-1073.14 -67.9982 0
-1071.81 -66.0068 0
-1070.46 -63.9763 0
-1069.08 -61.908 0
-1067.67 -59.8081 0
-1066.24 -57.6843 0
-1064.78 -55.5382 0
-1063.3 -53.3743 0
-1061.79 -51.1975 0
-1060.26 -49.0105 0
-1058.7 -46.8197 0
-1057.13 -44.6292 0
-1055.53 -42.4393 0
-1053.91 -40.2535 0
-1052.28 -38.0742 0
-1050.62 -35.9041 0
-1048.95 -33.7498 0
-1047.26 -31.6127 0
-1045.55 -29.4903 0
-1043.83 -27.3929 0
-1042.09 -25.3147 0
-1040.34 -23.2634 0
-1038.58 -21.2383 0
-1036.8 -19.2415 0
-1035.01 -17.2746 0
-1033.21 -15.3408 0
-1031.39 -13.4414 0
-1029.57 -11.5751 0
-1027.73 -9.74273 0
-1025.89 -7.94962 0
-1024.04 -6.1945 0
-1022.17 -4.47949 0
-1020.31 -2.80298 0
-1018.43 -1.16786 0
-1016.55 0.425173 0
-1014.66 1.9753 0
-1012.76 3.48458 0
-1010.86 4.94549 0
-1008.96 6.36552 0
-1007.04 7.74355 0
-1005.13 9.07381 0
-1003.21 10.3609 0
-1001.29 11.6035 0
-999.37 12.7992 0
-997.443 13.9501 0
-995.515 15.0548 0
-993.584 16.113 0
-991.653 17.1264 0
-989.721 18.0935 0
-987.789 19.0166 0
-985.856 19.8928 0
-983.924 20.7253 0
-981.991 21.5133 0
-980.061 22.2544 0
-978.13 22.9535 0
-976.2 23.6088 0
-974.274 24.219 0
-972.348 24.7852 0
-970.424 25.312 0
-968.5 25.7955 0
-966.579 26.2386 0
-964.662 26.6408 0
-962.747 27.0006 0
-960.836 27.3241 0
-958.929 27.6059 0
-957.024 27.8482 0
-955.123 28.0536 0
-953.225 28.2235 0
-951.332 28.3556 0
-949.443 28.4527 0
-947.557 28.5173 0
-945.676 28.542 0
-943.799 28.5335 0
-941.928 28.4939 0
-940.062 28.4238 0
-938.2 28.3225 0
-936.342 28.192 0
-934.491 28.0326 0
-932.643 27.8442 0
-930.799 27.626 0
-928.962 27.3823 0
-927.13 27.114 0
-925.303 26.8201 0
-923.481 26.5021 0
-921.666 26.1583 0
-919.853 25.7939 0
-918.048 25.4088 0
-916.246 25.0012 0
-914.451 24.5758 0
-912.662 24.1309 0
-910.876 23.6682 0
-909.098 23.1886 0
-907.324 22.6905 0
-905.555 22.1768 0
-903.79 21.6489 0
-902.032 21.1094 0
-900.28 20.5578 0
-898.531 19.9924 0
-896.787 19.4141 0
-895.05 18.8277 0
-893.316 18.2306 0
-891.588 17.6251 0
-889.865 17.0122 0
-888.146 16.3924 0
-886.431 15.7664 0
-884.72 15.1337 0
-883.017 14.4976 0
-881.316 13.8577 0
-879.618 13.2138 0
-877.925 12.5663 0
-876.237 11.9184 0
-874.552 11.2678 0
-872.873 10.6168 0
-871.197 9.96614 0
-869.523 9.31684 0
-867.853 8.66923 0
-866.188 8.023 0
-864.527 7.38008 0
-862.869 6.73761 0
-861.215 6.09997 0
-859.562 5.46901 0
-857.914 4.84088 0
-856.269 4.21719 0
-854.625 3.59998 0
-852.983 2.98675 0
-851.345 2.38044 0
-849.709 1.78302 0
-848.078 1.19295 0
-846.448 0.60963 0
-844.82 0.0344816 0
-843.196 -0.531497 0
-841.571 -1.08896 0
-839.949 -1.63775 0
-838.332 -2.17674 0
-836.713 -2.7065 0
-835.097 -3.22688 0
-833.483 -3.73575 0
-831.869 -4.23304 0
-830.256 -4.7208 0
-828.647 -5.19689 0
-827.039 -5.66246 0
-825.431 -6.11496 0
-823.826 -6.56027 0
-822.219 -6.99105 0
-820.615 -7.4082 0
-819.012 -7.81683 0
-817.41 -8.2123 0
-815.806 -8.59297 0
-814.203 -8.96429 0
-812.602 -9.3219 0
-811.001 -9.66451 0
-809.401 -9.9979 0
-807.8 -10.3185 0
-806.199 -10.6273 0
-804.599 -10.9229 0
-803 -11.2075 0
-801.4 -11.4764 0
-799.803 -11.7374 0
-798.202 -11.9843 0
-796.602 -12.2178 0
-795 -12.4381 0
-793.399 -12.6472 0
-791.799 -12.845 0
-790.196 -13.0303 0
-788.595 -13.2035 0
-786.994 -13.3652 0
-785.39 -13.5169 0
-783.785 -13.6563 0
-782.181 -13.7834 0
-780.576 -13.9004 0
-778.97 -14.0033 0
-777.365 -14.0984 0
-775.756 -14.1794 0
-774.148 -14.2541 0
-772.538 -14.3149 0
-770.928 -14.368 0
-769.317 -14.4099 0
-767.706 -14.4411 0
-766.092 -14.4633 0
-764.476 -14.4772 0
-762.861 -14.4783 0
-761.245 -14.4712 0
-759.628 -14.4581 0
-758.008 -14.4334 0
-756.388 -14.4013 0
-754.767 -14.3568 0
-753.144 -14.3105 0
-751.521 -14.2512 0
-749.895 -14.1857 0
-748.271 -14.111 0
-746.644 -14.033 0
-745.014 -13.9465 0
-743.384 -13.8535 0
-741.754 -13.7512 0
-740.122 -13.6448 0
-738.488 -13.5312 0
-736.852 -13.4133 0
-735.216 -13.2878 0
-733.579 -13.1587 0
-731.939 -13.0242 0
-730.299 -12.8837 0
-728.657 -12.7384 0
-727.015 -12.5885 0
-725.371 -12.4341 0
-723.725 -12.2766 0
-722.079 -12.1185 0
-720.432 -11.9518 0
-718.784 -11.7826 0
-717.135 -11.6109 0
-715.483 -11.437 0
-713.831 -11.2601 0
-712.177 -11.0796 0
-710.523 -10.8998 0
-708.867 -10.714 0
-707.211 -10.5247 0
-705.553 -10.3331 0
-703.895 -10.1467 0
-702.235 -9.95169 0
-700.574 -9.76292 0
-698.912 -9.56635 0
-697.25 -9.37049 0
-695.585 -9.17424 0
-693.92 -8.97425 0
-692.255 -8.77653 0
-690.586 -8.57878 0
-688.918 -8.38567 0
-687.251 -8.18889 0
-685.579 -7.98999 0
-683.906 -7.78852 0
-682.235 -7.5916 0
-680.562 -7.39666 0
-678.887 -7.20194 0
-677.211 -7.00552 0
-675.536 -6.81411 0
-673.859 -6.62152 0
-672.183 -6.42955 0
-670.505 -6.23898 0
-668.826 -6.05273 0
-667.148 -5.86402 0
-665.467 -5.68329 0
-663.786 -5.50084 0
-662.104 -5.32308 0
-660.423 -5.14331 0
-658.738 -4.96766 0
-657.056 -4.79365 0
-655.374 -4.62236 0
-653.689 -4.45378 0
-652.005 -4.28703 0
-650.32 -4.12305 0
-648.635 -3.96248 0
-646.948 -3.80542 0
-645.265 -3.6481 0
-643.578 -3.49393 0
-641.89 -3.34508 0
-640.203 -3.19825 0
-638.513 -3.05232 0
-636.826 -2.91035 0
-635.137 -2.77681 0
-633.45 -2.64495 0
-631.763 -2.51821 0
-630.073 -2.38948 0
-628.381 -2.26831 0
-626.691 -2.14491 0
-625.001 -2.02975 0
-623.312 -1.91568 0
-621.625 -1.80723 0
-619.932 -1.69968 0
-618.241 -1.5968 0
-616.552 -1.4957 0
-614.863 -1.40129 0
-613.171 -1.31097 0
-611.481 -1.22362 0
-609.79 -1.13857 0
-608.099 -1.05762 0
-606.41 -0.982208 0
-604.72 -0.906307 0
-603.028 -0.832868 0
-601.338 -0.764389 0
-599.652 -0.702182 0
-597.962 -0.644617 0
-596.273 -0.5895 0
-594.581 -0.534007 0
-592.891 -0.485221 0
-591.2 -0.440757 0
-589.511 -0.394682 0
-587.821 -0.356495 0
-586.136 -0.316543 0
-584.445 -0.280914 0
-582.757 -0.253101 0
-581.067 -0.225789 0
-579.38 -0.199331 0
-577.69 -0.179865 0
-576.001 -0.16481 0
-574.313 -0.153775 0
-572.623 -0.144158 0
-570.937 -0.13381 0
-569.249 -0.12739 0
-567.562 -0.125586 0
-565.874 -0.125757 0
-564.186 -0.134077 0
-562.503 -0.140498 0
-560.816 -0.146496 0
-559.133 -0.156358 0
-557.448 -0.171138 0
-555.767 -0.191478 0
-554.081 -0.210068 0
-552.397 -0.235201 0
-550.713 -0.258084 0
-549.031 -0.282853 0
-547.349 -0.313112 0
-545.665 -0.346715 0
-543.979 -0.384984 0
-542.296 -0.41826 0
-540.611 -0.450926 0
-538.933 -0.491332 0
-537.25 -0.532459 0
-535.57 -0.575547 0
-533.891 -0.620696 0
-532.21 -0.669011 0
-530.528 -0.718258 0
-528.845 -0.771257 0
-527.168 -0.821876 0
-525.488 -0.875832 0
-523.81 -0.930332 0
-522.132 -0.989404 0
-520.455 -1.04662 0
-518.777 -1.10172 0
-517.1 -1.16394 0
-515.422 -1.22578 0
-513.746 -1.28969 0
-512.073 -1.35105 0
-510.397 -1.4175 0
-508.724 -1.48231 0
-507.047 -1.55236 0
-505.371 -1.61969 0
-503.696 -1.68525 0
-502.023 -1.75617 0
-500.35 -1.82524 0
-498.674 -1.8961 0
-497.004 -1.96784 0
-495.334 -2.0371 0
-493.66 -2.10859 0
-491.984 -2.18109 0
-490.314 -2.25055 0
-488.644 -2.324 0
-486.972 -2.39846 0
-485.3 -2.47452 0
-483.633 -2.54679 0
-481.96 -2.62405 0
-480.286 -2.69758 0
-478.619 -2.76906 0
-476.95 -2.84243 0
-475.281 -2.91843 0
-473.611 -2.99245 0
-471.942 -3.06983 0
-470.272 -3.14391 0
-468.599 -3.22401 0
-466.935 -3.296 0
-465.268 -3.36586 0
-463.599 -3.44069 0
-461.931 -3.51487 0
-460.263 -3.58571 0
-458.594 -3.66004 0
-456.927 -3.73345 0
-455.257 -3.79992 0
-453.591 -3.8704 0
-451.925 -3.93871 0
-450.257 -4.01304 0
-448.592 -4.08381 0
-446.927 -4.1551 0
-445.26 -4.22419 0
-443.595 -4.29139 0
-441.924 -4.36327 0
-440.259 -4.4237 0
-438.596 -4.48837 0
-436.93 -4.55457 0
-435.264 -4.62373 0
-433.602 -4.68187 0
-431.942 -4.74222 0
-430.273 -4.8116 0
-428.607 -4.86936 0
-426.946 -4.92706 0
-425.283 -4.98504 0
-423.615 -5.04382 0
-421.952 -5.1033 0
-420.289 -5.15763 0
-418.625 -5.2132 0
-416.964 -5.26983 0
-415.304 -5.3234 0
-413.639 -5.38184 0
-411.975 -5.42982 0
-410.309 -5.48247 0
-408.644 -5.53238 0
-406.983 -5.5799 0
-405.317 -5.62629 0
-403.655 -5.67094 0
-401.986 -5.71113 0
-400.326 -5.75596 0
-398.662 -5.79815 0
-397.002 -5.84192 0
-395.334 -5.88365 0
-393.672 -5.92657 0
-392.011 -5.96408 0
-390.346 -6.00554 0
-388.685 -6.0411 0
-387.02 -6.08102 0
-385.356 -6.11875 0
-383.695 -6.14882 0
-382.03 -6.17935 0
-380.364 -6.21113 0
-378.704 -6.24347 0
-377.038 -6.26957 0
-375.378 -6.29719 0
-373.714 -6.32049 0
-372.051 -6.35101 0
-370.391 -6.37414 0
-368.725 -6.40513 0
-367.06 -6.4238 0
-365.395 -6.44448 0
-363.73 -6.4727 0
-362.063 -6.49191 0
-360.402 -6.51477 0
-358.738 -6.53152 0
-357.071 -6.5539 0
-355.41 -6.56935 0
-353.746 -6.57999 0
-352.078 -6.6023 0
-350.417 -6.62126 0
-348.753 -6.62741 0
-347.09 -6.63872 0
-345.425 -6.65286 0
-343.76 -6.66533 0
-342.094 -6.67498 0
-340.429 -6.68457 0
-338.765 -6.69292 0
-337.1 -6.69965 0
-335.435 -6.70857 0
-333.772 -6.71697 0
-332.101 -6.72158 0
-330.436 -6.72787 0
-328.77 -6.72825 0
-327.103 -6.73096 0
-325.439 -6.73412 0
-323.772 -6.73894 0
-322.107 -6.74189 0
-320.442 -6.74366 0
-318.772 -6.74219 0
-317.111 -6.74084 0
-315.448 -6.73875 0
-313.778 -6.73991 0
-312.114 -6.73836 0
-310.448 -6.73624 0
-308.784 -6.73698 0
-307.115 -6.73325 0
-305.448 -6.7291 0
-303.785 -6.7261 0
-302.116 -6.7154 0
-300.445 -6.71272 0
-298.781 -6.705 0
-297.118 -6.69935 0
-295.45 -6.69605 0
-293.781 -6.6863 0
-292.113 -6.67973 0
-290.447 -6.67064 0
-288.782 -6.66341 0
-287.115 -6.65945 0
-285.45 -6.64772 0
-283.782 -6.63562 0
-282.111 -6.63303 0
-280.444 -6.61941 0
-278.779 -6.60347 0
-277.109 -6.59547 0
-275.445 -6.58235 0
-273.776 -6.57377 0
-272.105 -6.56251 0
-270.437 -6.55035 0
-268.769 -6.53883 0
-267.1 -6.53003 0
-265.428 -6.51844 0
-263.762 -6.50719 0
-262.098 -6.49273 0
-260.431 -6.48144 0
-258.763 -6.4654 0
-257.095 -6.45261 0
-255.421 -6.43845 0
-253.754 -6.42771 0
-252.082 -6.41095 0
-250.416 -6.3974 0
-248.753 -6.38397 0
-247.08 -6.37266 0
-245.415 -6.35979 0
-243.746 -6.34382 0
-242.076 -6.33294 0
-240.407 -6.31512 0
-238.739 -6.29774 0
-237.071 -6.28988 0
-235.404 -6.2776 0
-233.733 -6.25825 0
-232.068 -6.24775 0
-230.394 -6.2354 0
-228.728 -6.22393 0
-227.057 -6.21424 0
-225.386 -6.19533 0
-223.715 -6.18228 0
-222.041 -6.16765 0
-220.378 -6.15645 0
-218.711 -6.13883 0
-217.035 -6.12552 0
-215.367 -6.11636 0
-213.695 -6.10591 0
-212.024 -6.08955 0
-210.353 -6.07723 0
-208.682 -6.06221 0
-207.009 -6.05028 0
-205.339 -6.03851 0
-203.669 -6.0296 0
-202.002 -6.02255 0
-200.333 -6.00875 0
-198.663 -5.99615 0
-197 -5.98469 0
-195.327 -5.9735 0
-193.654 -5.96414 0
-191.984 -5.95151 0
-190.316 -5.93572 0
-188.645 -5.92977 0
-186.968 -5.91446 0
-185.301 -5.9059 0
-183.631 -5.89561 0
-181.961 -5.88361 0
-180.292 -5.87366 0
-178.624 -5.86604 0
-176.956 -5.85976 0
-175.286 -5.85072 0
-173.617 -5.84222 0
-171.95 -5.8331 0
-170.277 -5.81809 0
-168.605 -5.81161 0
-166.932 -5.80303 0
-165.264 -5.79591 0
-163.597 -5.78458 0
-161.925 -5.77801 0
-160.255 -5.77055 0
-158.581 -5.77053 0
-156.913 -5.76521 0
-155.235 -5.75581 0
-153.568 -5.75007 0
-151.894 -5.74402 0
-150.231 -5.73552 0
-148.555 -5.73149 0
-146.883 -5.72457 0
-145.212 -5.72039 0
-143.542 -5.71686 0
-141.874 -5.70842 0
-140.203 -5.70333 0
-138.536 -5.69526 0
-136.869 -5.69585 0
-135.196 -5.6901 0
-133.525 -5.68434 0
-131.853 -5.68471 0
-130.184 -5.67725 0
-128.517 -5.67718 0
-126.849 -5.67557 0
-125.186 -5.66681 0
-123.511 -5.6706 0
-121.84 -5.66305 0
-120.167 -5.66014 0
-118.498 -5.65617 0
-116.824 -5.66026 0
-115.154 -5.65359 0
-113.484 -5.64756 0
-111.82 -5.64145 0
-110.151 -5.64101 0
-108.482 -5.63476 0
-106.809 -5.63112 0
-105.138 -5.63066 0
-103.471 -5.63285 0
-101.801 -5.63024 0
-100.135 -5.62777 0
-98.468 -5.62718 0
-96.795 -5.62754 0
-95.1266 -5.62631 0
-93.4554 -5.62262 0
-91.7892 -5.62082 0
-90.1167 -5.62178 0
-88.4523 -5.62238 0
-86.7803 -5.61934 0
-85.1148 -5.61754 0
-83.4429 -5.61773 0
-81.7764 -5.62309 0
-80.1051 -5.61869 0
-78.4332 -5.62003 0
-76.7656 -5.62547 0
-75.0974 -5.61852 0
-73.4268 -5.62304 0
-71.7572 -5.62234 0
-70.0866 -5.62114 0
-68.4196 -5.61587 0
-66.7475 -5.61646 0
-65.0798 -5.61509 0
-63.4119 -5.61224 0
-61.7411 -5.60852 0
-60.0686 -5.60509 0
-58.4044 -5.61093 0
-56.7346 -5.61226 0
-55.0673 -5.61175 0
-53.3993 -5.6109 0
-51.7359 -5.61118 0
-50.0637 -5.60705 0
-48.3924 -5.61518 0
-46.7266 -5.60836 0
-45.0505 -5.61904 0
-43.3819 -5.61481 0
-41.7197 -5.62094 0
-40.0471 -5.6177 0
-38.3815 -5.62468 0
-36.7137 -5.62693 0
-35.0447 -5.62834 0
-33.3774 -5.63019 0
-31.7127 -5.62976 0
-30.0412 -5.6306 0
-28.3651 -5.6266 0
-26.6967 -5.62141 0
-25.0317 -5.62946 0
-23.3644 -5.62254 0
-21.694 -5.62342 0
-20.0278 -5.622 0
-18.3563 -5.62043 0
-16.6907 -5.62428 0
-15.0219 -5.62217 0
-13.351 -5.62005 0
-11.6809 -5.61724 0
-10.0183 -5.62425 0
-8.34867 -5.62197 0
-6.67801 -5.62651 0
-5.00433 -5.62359 0
-3.33851 -5.62734 0
-1.67271 -5.63057 0
0 -5.62362 0
-1117.83 252.789 0
-1117.56 236.171 0
-1117.4 219.859 0
-1117.21 203.763 0
-1116.97 187.915 0
-1116.67 172.357 0
-1116.32 157.14 0
-1115.92 142.323 0
-1115.48 127.956 0
-1115.01 114.079 0
-1114.52 100.719 0
-1113.99 87.8939 0
-1113.44 75.6157 0
-1112.86 63.8944 0
-1112.24 52.737 0
-1111.59 42.1455 0
-1110.93 32.1154 0
-1110.28 22.6046 0
-1109.66 13.5617 0
-1109.05 4.95905 0
-1108.45 -3.22134 0
-1107.83 -10.9716 0
-1107.21 -18.2952 0
-1106.59 -25.1972 0
-1105.97 -31.6826 0
-1105.36 -37.7606 0
-1104.75 -43.441 0
-1104.13 -48.7298 0
-1103.52 -53.6391 0
-1102.91 -58.1786 0
-1102.29 -62.3546 0
-1101.67 -66.1808 0
-1101.04 -69.6631 0
-1100.41 -72.8144 0
-1099.76 -75.643 0
-1099.1 -78.1638 0
-1098.42 -80.3841 0
-1097.73 -82.3184 0
-1097.02 -83.9773 0
-1096.29 -85.3706 0
-1095.54 -86.5114 0
-1094.77 -87.4143 0
-1093.98 -88.0874 0
-1093.16 -88.5405 0
-1092.32 -88.7866 0
-1091.45 -88.8372 0
-1090.56 -88.702 0
-1089.64 -88.3874 0
-1088.69 -87.9098 0
-1087.71 -87.2758 0
-1086.71 -86.4931 0
-1085.68 -85.5732 0
-1084.62 -84.5237 0
-1083.54 -83.3531 0
-1082.42 -82.0713 0
-1081.29 -80.6834 0
-1080.12 -79.1996 0
-1078.92 -77.6241 0
-1077.71 -75.965 0
-1076.46 -74.2357 0
-1075.19 -72.4337 0
-1073.89 -70.5677 0
-1072.57 -68.6447 0
-1071.23 -66.6724 0
-1069.86 -64.6551 0
-1068.47 -62.5977 0
-1067.05 -60.5018 0
-1065.61 -58.3804 0
-1064.15 -56.2316 0
-1062.67 -54.0618 0
-1061.17 -51.8769 0
-1059.65 -49.6773 0
-1058.11 -47.4704 0
-1056.55 -45.2595 0
-1054.98 -43.0466 0
-1053.38 -40.8398 0
-1051.77 -38.6337 0
-1050.14 -36.4357 0
-1048.5 -34.2502 0
-1046.84 -32.077 0
-1045.16 -29.9238 0
-1043.48 -27.7894 0
-1041.77 -25.6743 0
-1040.06 -23.5841 0
-1038.33 -21.5191 0
-1036.59 -19.4829 0
-1034.84 -17.4755 0
-1033.08 -15.4944 0
-1031.31 -13.5515 0
-1029.53 -11.6403 0
-1027.74 -9.76377 0
-1025.94 -7.92322 0
-1024.14 -6.11993 0
-1022.32 -4.35706 0
-1020.5 -2.63362 0
-1018.67 -0.951025 0
-1016.83 0.689355 0
-1014.99 2.28719 0
-1013.14 3.84657 0
-1011.29 5.35761 0
-1009.43 6.82686 0
-1007.57 8.25282 0
-1005.7 9.63262 0
-1003.83 10.9684 0
-1001.96 12.2573 0
-1000.08 13.5035 0
-998.202 14.7001 0
-996.321 15.8538 0
-994.438 16.9603 0