<?xml version="1.0"?>
<VTKFile type="StructuredGrid"  version="0.1" byte_order="LittleEndian" compressor="vtkZLibDataCompressor">
  <StructuredGrid WholeExtent="0 700 0 30 0 0">
    <Piece Extent="0 700 0 30 0 0">
      <PointData Vectors="Velocity">
        <DataArray type="Float32" Name="Velocity" NumberOfComponents="3" format="ascii">
-1084.5 128.863 0
-1084.83 117.39 0
-1085.2 106.032 0
-1085.6 94.9003 0
-1086.01 84.0152 0
-1086.46 73.4213 0
-1086.98 63.2116 0
-1087.53 53.4548 0
-1088.11 44.1723 0
-1088.68 35.4123 0
-1089.27 27.1835 0
-1089.82 19.5035 0
-1090.35 12.4026 0
-1090.83 5.89135 0
-1091.19 -0.0583408 0
-1091.45 -5.59305 0
-1091.7 -10.8027 0
-1091.88 -15.6768 0
-1092.12 -20.2211 0
-1092.39 -24.3636 0
-1092.61 -28.0942 0
-1092.81 -31.4528 0
-1092.99 -34.4072 0
-1093.14 -37.0026 0
-1093.24 -39.2293 0
-1093.3 -41.1214 0
-1093.3 -42.6937 0
-1093.24 -43.9686 0
-1093.13 -44.9685 0
-1092.95 -45.7067 0
-1092.71 -46.2045 0
-1092.4 -46.4892 0
-1092.02 -46.5686 0
-1091.58 -46.4645 0
-1091.07 -46.1934 0
-1090.49 -45.7635 0
-1089.85 -45.1922 0
-1089.14 -44.4865 0
-1088.38 -43.6642 0
-1087.56 -42.7428 0
-1086.67 -41.7185 0
-1085.73 -40.6182 0
-1084.74 -39.4312 0
-1083.7 -38.1792 0
-1082.59 -36.8747 0
-1081.45 -35.5272 0
-1080.25 -34.1312 0
-1079 -32.705 0
-1077.71 -31.2536 0
-1076.38 -29.7774 0
-1075.01 -28.2997 0
-1073.6 -26.8038 0
-1072.16 -25.3088 0
-1070.67 -23.8133 0
-1069.16 -22.3258 0
-1067.61 -20.8455 0
-1066.03 -19.3835 0
-1064.43 -17.9364 0
-1062.8 -16.5126 0
-1061.14 -15.1121 0
-1059.46 -13.7436 0
-1057.76 -12.4005 0
-1056.04 -11.082 0
-1054.3 -9.80535 0
-1052.55 -8.56276 0
-1050.77 -7.35875 0
-1048.98 -6.18896 0
-1047.17 -5.06138 0
-1045.36 -3.97523 0
-1043.53 -2.92991 0
-1041.69 -1.92178 0
-1039.84 -0.964341 0
-1037.98 -0.044556 0
-1036.11 0.82682 0
-1034.24 1.65138 0
-1032.37 2.43347 0
-1030.48 3.17532 0
-1028.6 3.87083 0
-1026.7 4.52125 0
-1024.81 5.12756 0
-1022.91 5.6902 0
-1021.02 6.20707 0
-1019.12 6.68217 0
-1017.22 7.11752 0
-1015.32 7.50848 0
-1013.43 7.86254 0
-1011.53 8.17216 0
-1009.64 8.44368 0
-1007.75 8.67545 0
-1005.87 8.87049 0
-1003.98 9.02799 0
-1002.1 9.1513 0
-1000.23 9.23745 0
-998.362 9.29335 0
-996.494 9.31195 0
-994.638 9.30059 0
-992.786 9.25564 0
-990.938 9.18587 0
-989.096 9.08551 0
-987.262 8.95665 0
-985.435 8.79909 0
-983.615 8.6192 0
-981.802 8.41587 0
-979.994 8.19162 0
-978.194 7.94691 0
-976.403 7.67678 0
-974.62 7.39419 0
-972.844 7.09188 0
-971.073 6.77052 0
-969.312 6.43391 0
-967.559 6.08545 0
-965.809 5.72512 0
-964.068 5.34791 0
-962.336 4.95857 0
-960.612 4.56414 0
-958.89 4.15933 0
-957.18 3.74618 0
-955.479 3.32744 0
-953.783 2.90376 0
-952.092 2.4777 0
-950.409 2.04781 0
-948.731 1.61515 0
-947.062 1.1815 0
-945.397 0.747967 0
-943.738 0.314479 0
-942.084 -0.117186 0
-940.44 -0.547524 0
-938.796 -0.974884 0
-937.159 -1.40095 0
-935.528 -1.81725 0
-933.901 -2.23142 0
-932.28 -2.64045 0
-930.661 -3.04165 0
-929.047 -3.43917 0
-927.441 -3.82595 0
-925.835 -4.20538 0
-924.235 -4.579 0
-922.636 -4.9403 0
-921.038 -5.29208 0
-919.445 -5.63511 0
-917.857 -5.96701 0
-916.271 -6.29077 0
-914.684 -6.60204 0
-913.1 -6.90026 0
-911.519 -7.19177 0
-909.94 -7.46899 0
-908.363 -7.73513 0
-906.789 -7.98929 0
-905.212 -8.23133 0
-903.637 -8.46575 0
-902.065 -8.68245 0
-900.493 -8.88693 0
-898.922 -9.08484 0
-897.351 -9.26632 0
-895.78 -9.43676 0
-894.206 -9.59701 0
-892.634 -9.74198 0
-891.063 -9.87604 0
-889.494 -9.99939 0
-887.923 -10.1112 0
-886.35 -10.2116 0
-884.777 -10.301 0
-883.202 -10.3739 0
-881.626 -10.4413 0
-880.052 -10.4949 0
-878.475 -10.5415 0
-876.896 -10.5722 0
-875.314 -10.5969 0
-873.736 -10.6147 0
-872.154 -10.6169 0
-870.569 -10.6131 0
-868.985 -10.5996 0
-867.398 -10.5776 0
-865.808 -10.549 0
-864.218 -10.5104 0
-862.626 -10.4645 0
-861.03 -10.4105 0
-859.433 -10.3484 0
-857.835 -10.2821 0
-856.237 -10.2083 0
-854.636 -10.1257 0
-853.033 -10.0398 0
-851.429 -9.94891 0
-849.824 -9.8529 0
-848.216 -9.74743 0
-846.606 -9.64087 0
-844.994 -9.52841 0
-843.378 -9.4138 0
-841.762 -9.29544 0
-840.145 -9.17093 0
-838.524 -9.0472 0
-836.901 -8.91924 0
-835.278 -8.78889 0
-833.653 -8.65266 0
-832.027 -8.51559 0
-830.399 -8.37689 0
-828.766 -8.23644 0
-827.136 -8.09592 0
-825.5 -7.95698 0
-823.865 -7.81435 0
-822.226 -7.6707 0
-820.587 -7.52917 0
-818.948 -7.38485 0
-817.307 -7.24485 0
-815.666 -7.10449 0
-814.02 -6.96182 0
-812.372 -6.81967 0
-810.727 -6.67863 0
-809.076 -6.5425 0
-807.426 -6.40662 0
-805.777 -6.27255 0
-804.124 -6.14009 0
-802.47 -6.00619 0
-800.816 -5.87827 0
-799.161 -5.74976 0
-797.505 -5.62945 0
-795.849 -5.50585 0
-794.192 -5.38342 0
-792.533 -5.2652 0
-790.876 -5.14925 0
-789.216 -5.03944 0
-787.557 -4.93058 0
-785.896 -4.82656 0
-784.236 -4.72153 0
-782.572 -4.62464 0
-780.909 -4.52477 0
-779.245 -4.42882 0
-777.581 -4.33752 0
-775.918 -4.25192 0
-774.253 -4.16694 0
-772.588 -4.08865 0
-770.922 -4.01471 0
-769.257 -3.94105 0
-767.591 -3.87151 0
-765.925 -3.80458 0
-764.261 -3.74394 0
-762.594 -3.68441 0
-760.929 -3.63013 0
-759.262 -3.58286 0
-757.597 -3.5315 0
-755.933 -3.48483 0
-754.266 -3.44234 0
-752.603 -3.40336 0
-750.937 -3.36582 0
-749.273 -3.33398 0
-747.607 -3.30931 0
-745.945 -3.28298 0
-744.279 -3.26199 0
-742.614 -3.23814 0
-740.951 -3.2245 0
-739.289 -3.211 0
-737.629 -3.19997 0
-735.968 -3.19063 0
-734.306 -3.18648 0
-732.644 -3.18589 0
-730.984 -3.18598 0
-729.324 -3.1849 0
-727.659 -3.19229 0
-725.999 -3.20233 0
-724.341 -3.21095 0
-722.683 -3.2244 0
-721.027 -3.23946 0
-719.366 -3.25371 0
-717.714 -3.27286 0
-716.056 -3.2933 0
-714.398 -3.31413 0
-712.742 -3.33795 0
-711.086 -3.36016 0
-709.432 -3.38976 0
-707.777 -3.41921 0
-706.126 -3.45047 0
-704.47 -3.48082 0
-702.818 -3.51527 0
-701.167 -3.54693 0
-699.515 -3.58262 0
-697.865 -3.61972 0
-696.214 -3.65363 0
-694.565 -3.69389 0
-692.913 -3.73318 0
-691.267 -3.77209 0
-689.616 -3.80888 0
-687.966 -3.85072 0
-686.317 -3.89177 0
-684.671 -3.9358 0
-683.029 -3.97521 0
-681.381 -4.01825 0
-679.736 -4.05873 0
-678.094 -4.10072 0
-676.45 -4.14629 0
-674.805 -4.18945 0
-673.161 -4.23213 0
-671.514 -4.2739 0
-669.872 -4.31552 0
-668.228 -4.35725 0
-666.587 -4.39748 0
-664.945 -4.44199 0
-663.302 -4.48214 0
-661.663 -4.52322 0
-660.021 -4.5614 0
-658.385 -4.60124 0
-656.74 -4.6434 0
-655.1 -4.6832 0
-653.459 -4.71748 0
-651.821 -4.75516 0
-650.181 -4.78864 0
-648.546 -4.82553 0
-646.907 -4.86191 0
-645.267 -4.89452 0
-643.631 -4.92494 0
-641.991 -4.9598 0
-640.352 -4.99404 0
-638.713 -5.02362 0
-637.073 -5.05305 0
-635.437 -5.08138 0
-633.801 -5.10879 0
-632.163 -5.13941 0
-630.528 -5.16395 0
-628.887 -5.18733 0
-627.253 -5.21145 0
-625.614 -5.23297 0
-623.979 -5.25199 0
-622.342 -5.27621 0
-620.706 -5.29656 0
-619.07 -5.31797 0
-617.433 -5.33531 0
-615.796 -5.34793 0
-614.154 -5.36144 0
-612.518 -5.37885 0
-610.881 -5.397 0
-609.246 -5.40675 0
-607.61 -5.42051 0
-605.975 -5.43376 0
-604.34 -5.43614 0
-602.705 -5.44443 0
-601.067 -5.45108 0
-599.429 -5.4556 0
-597.795 -5.46577 0
-596.157 -5.47042 0
-594.521 -5.47273 0
-592.882 -5.47998 0
-591.244 -5.48127 0
-589.609 -5.48297 0
-587.971 -5.48486 0
-586.331 -5.48305 0
-584.689 -5.47632 0
-583.053 -5.47755 0
-581.418 -5.47503 0
-579.78 -5.47282 0
-578.142 -5.46756 0
-576.503 -5.465 0
-574.864 -5.45736 0
-573.23 -5.44954 0
-571.588 -5.44565 0
-569.948 -5.43833 0
-568.312 -5.42903 0
-566.671 -5.41779 0
-565.029 -5.41176 0
-563.386 -5.39977 0
-561.747 -5.39132 0
-560.109 -5.38138 0
-558.468 -5.36917 0
-556.827 -5.36218 0
-555.185 -5.34974 0
-553.549 -5.33907 0
-551.906 -5.32551 0
-550.263 -5.31446 0
-548.62 -5.3023 0
-546.982 -5.28808 0
-545.343 -5.27637 0
-543.699 -5.25811 0
-542.051 -5.24493 0
-540.41 -5.23081 0
-538.769 -5.21724 0
-537.122 -5.20589 0
-535.482 -5.18871 0
-533.84 -5.17084 0
-532.201 -5.15265 0
-530.56 -5.14325 0
-528.915 -5.1231 0
-527.271 -5.10908 0
-525.631 -5.09262 0
-523.986 -5.08281 0
-522.341 -5.06736 0
-520.701 -5.05514 0
-519.058 -5.04387 0
-517.417 -5.02524 0
-515.771 -5.00862 0
-514.13 -4.9937 0
-512.486 -4.98317 0
-510.844 -4.96813 0
-509.204 -4.95424 0
-507.56 -4.94156 0
-505.912 -4.92667 0
-504.271 -4.91004 0
-502.626 -4.89933 0
-500.983 -4.88456 0
-499.336 -4.87474 0
-497.69 -4.86294 0
-496.047 -4.85145 0
-494.404 -4.83825 0
-492.761 -4.82716 0
-491.117 -4.81237 0
-489.472 -4.80363 0
-487.827 -4.78962 0
-486.184 -4.77746 0
-484.539 -4.76468 0
-482.891 -4.75165 0
-481.244 -4.74442 0
-479.6 -4.73628 0
-477.956 -4.72848 0
-476.311 -4.71911 0
-474.667 -4.70978 0
-473.021 -4.69721 0
-471.374 -4.69214 0
-469.732 -4.68345 0
-468.083 -4.67331 0
-466.434 -4.67017 0
-464.791 -4.6665 0
-463.148 -4.65613 0
-461.502 -4.65023 0
-459.855 -4.64777 0
-458.212 -4.64241 0
-456.567 -4.64362 0
-454.924 -4.63802 0
-453.281 -4.63102 0
-451.632 -4.63096 0
-449.988 -4.62252 0
-448.341 -4.61656 0
-446.694 -4.6165 0
-445.048 -4.61216 0
-443.407 -4.61052 0
-441.766 -4.61103 0
-440.119 -4.60616 0
-438.478 -4.60555 0
-436.833 -4.60098 0
-435.189 -4.59807 0
-433.544 -4.59838 0
-431.895 -4.59613 0
-430.252 -4.59924 0
-428.604 -4.60297 0
-426.965 -4.59639 0
-425.318 -4.60017 0
-423.673 -4.59565 0
-422.027 -4.59761 0
-420.38 -4.60286 0
-418.734 -4.60101 0
-417.092 -4.60851 0
-415.45 -4.61009 0
-413.805 -4.61293 0
-412.158 -4.61777 0
-410.516 -4.61892 0
-408.87 -4.62124 0
-407.224 -4.62178 0
-405.581 -4.62795 0
-403.944 -4.6238 0
-402.296 -4.63753 0
-400.653 -4.64075 0
-399.012 -4.64297 0
-397.366 -4.64821 0
-395.721 -4.65144 0
-394.079 -4.65538 0
-392.432 -4.65598 0
-390.792 -4.65669 0
-389.153 -4.65844 0
-387.507 -4.66029 0
-385.86 -4.66768 0
-384.217 -4.6706 0
-382.578 -4.67822 0
-380.931 -4.68776 0
-379.285 -4.68944 0
-377.642 -4.69639 0
-376.005 -4.69846 0
-374.361 -4.70745 0
-372.719 -4.71309 0
-371.074 -4.71547 0
-369.429 -4.71665 0
-367.783 -4.72636 0
-366.14 -4.7335 0
-364.496 -4.73843 0
-362.856 -4.745 0
-361.211 -4.74882 0
-359.569 -4.75558 0
-357.929 -4.75811 0
-356.287 -4.7622 0
-354.641 -4.77017 0
-353.005 -4.7772 0
-351.364 -4.77922 0
-349.722 -4.78243 0
-348.075 -4.79111 0
-346.429 -4.79912 0
-344.792 -4.80131 0
-343.152 -4.8089 0
-341.511 -4.8167 0
-339.872 -4.81469 0
-338.233 -4.81737 0
-336.591 -4.82059 0
-334.945 -4.82398 0
-333.301 -4.83178 0
-331.661 -4.83391 0
-330.01 -4.83909 0
-328.374 -4.84565 0
-326.732 -4.84816 0
-325.084 -4.85152 0
-323.443 -4.85684 0
-321.802 -4.85363 0
-320.156 -4.8616 0
-318.519 -4.86577 0
-316.874 -4.86626 0
-315.232 -4.87352 0
-313.59 -4.87311 0
-311.953 -4.87317 0
-310.31 -4.87855 0
-308.674 -4.88415 0
-307.033 -4.88189 0
-305.394 -4.88713 0
-303.75 -4.89589 0
-302.107 -4.89664 0
-300.469 -4.89645 0
-298.825 -4.90363 0
-297.184 -4.90386 0
-295.538 -4.90633 0
-293.897 -4.90901 0
-292.253 -4.90616 0
-290.607 -4.90651 0
-288.967 -4.90885 0
-287.325 -4.91366 0
-285.684 -4.91824 0
-284.045 -4.91809 0
-282.405 -4.92192 0
-280.761 -4.92186 0
-279.122 -4.92565 0
-277.481 -4.92611 0
-275.838 -4.9259 0
-274.196 -4.92611 0
-272.552 -4.926 0
-270.911 -4.9224 0
-269.265 -4.92395 0
-267.624 -4.91941 0
-265.981 -4.92591 0
-264.342 -4.93382 0
-262.701 -4.92921 0
-261.057 -4.93051 0
-259.417 -4.93059 0
-257.774 -4.93182 0
-256.132 -4.92811 0
-254.487 -4.93246 0
-252.846 -4.92665 0
-251.202 -4.92692 0
-249.556 -4.92685 0
-247.916 -4.92969 0
-246.28 -4.92702 0
-244.639 -4.92765 0
-242.995 -4.93117 0
-241.353 -4.93136 0
-239.714 -4.93316 0
-238.07 -4.92977 0
-236.427 -4.92834 0
-234.788 -4.93482 0
-233.144 -4.93017 0
-231.508 -4.92709 0
-229.867 -4.92537 0
-228.224 -4.92957 0
-226.58 -4.92655 0
-224.938 -4.92965 0
-223.297 -4.92884 0
-221.653 -4.92175 0
-220.014 -4.92287 0
-218.376 -4.91766 0
-216.732 -4.90919 0
-215.085 -4.91782 0
-213.446 -4.91454 0
-211.798 -4.9209 0
-210.155 -4.91493 0
-208.511 -4.91112 0
-206.871 -4.91379 0
-205.234 -4.91224 0
-203.592 -4.90589 0
-201.947 -4.90414 0
-200.304 -4.90341 0
-198.663 -4.90632 0
-197.018 -4.90434 0
-195.374 -4.90523 0
-193.736 -4.90105 0
-192.091 -4.899 0
-190.456 -4.89838 0
-188.816 -4.90118 0
-187.167 -4.90181 0
-185.527 -4.89318 0
-183.882 -4.89263 0
-182.242 -4.8947 0
-180.597 -4.89231 0
-178.961 -4.89126 0
-177.321 -4.89391 0
-175.678 -4.88743 0
-174.036 -4.88915 0
-172.396 -4.88398 0
-170.747 -4.88411 0
-169.105 -4.88378 0
-167.463 -4.8785 0
-165.819 -4.87767 0
-164.177 -4.87782 0
-162.536 -4.8769 0
-160.891 -4.88038 0
-159.252 -4.87961 0
-157.607 -4.88083 0
-155.962 -4.87824 0
-154.321 -4.87747 0
-152.678 -4.87972 0
-151.035 -4.88443 0
-149.395 -4.88366 0
-147.751 -4.87878 0
-146.112 -4.88234 0
-144.475 -4.88164 0
-142.829 -4.87929 0
-141.191 -4.87269 0
-139.545 -4.87442 0
-137.908 -4.87492 0
-136.262 -4.86986 0
-134.617 -4.86784 0
-132.973 -4.87249 0
-131.326 -4.87713 0
-129.69 -4.87366 0
-128.046 -4.87265 0
-126.396 -4.87318 0
-124.757 -4.8725 0
-123.126 -4.87361 0
-121.48 -4.86904 0
-119.841 -4.87716 0
-118.196 -4.86964 0
-116.557 -4.8733 0
-114.91 -4.86831 0
-113.267 -4.86729 0
-111.633 -4.87181 0
-109.987 -4.87066 0
-108.346 -4.87625 0
-106.704 -4.87149 0
-105.062 -4.87309 0
-103.419 -4.87539 0
-101.777 -4.86997 0
-100.14 -4.86916 0
-98.4949 -4.87711 0
-96.8533 -4.8728 0
-95.2097 -4.87578 0
-93.5686 -4.87975 0
-91.9266 -4.883 0
-90.2889 -4.87518 0
-88.6474 -4.87046 0
-87.0036 -4.87372 0
-85.365 -4.88109 0
-83.7194 -4.88231 0
-82.0742 -4.88198 0
-80.4347 -4.88295 0
-78.7947 -4.89524 0
-77.1563 -4.88885 0
-75.5063 -4.8918 0
-73.8652 -4.89637 0
-72.2267 -4.89064 0
-70.5831 -4.89459 0
-68.9432 -4.88195 0
-67.2966 -4.88629 0
-65.6545 -4.88223 0
-64.0098 -4.8851 0
-62.3689 -4.88569 0
-60.7281 -4.88928 0
-59.0891 -4.89099 0
-57.4516 -4.89167 0
-55.8115 -4.88901 0
-54.1684 -4.88341 0
-52.5229 -4.88176 0
-50.8827 -4.87998 0
-49.2376 -4.87453 0
-47.5981 -4.88347 0
-45.9543 -4.88727 0
-44.3153 -4.8894 0
-42.6744 -4.88941 0
-41.0361 -4.8898 0
-39.397 -4.88783 0
-37.7557 -4.87851 0
-36.1114 -4.87576 0
-34.4717 -4.88215 0
-32.8288 -4.88347 0
-31.1822 -4.89154 0
-29.541 -4.89272 0
-27.8991 -4.89546 0
-26.2608 -4.89348 0
-24.6193 -4.89029 0
-22.9814 -4.89245 0
-21.3425 -4.88526 0
-19.7047 -4.89136 0
-18.0619 -4.89372 0
-16.4173 -4.89191 0
-14.7775 -4.89784 0
-13.1384 -4.88454 0
-11.4908 -4.8863 0
-9.84605 -4.88846 0
-8.20263 -4.89178 0
-6.56333 -4.89048 0
-4.92756 -4.8874 0
-3.2848 -4.88899 0
-1.64073 -4.89226 0
0 -4.89088 0
-1095.98 129.215 0
-1096.19 117.69 0
-1096.4 106.315 0
-1096.59 95.1623 0
-1096.77 84.2538 0
-1096.9 73.6285 0
-1097.01 63.3707 0
-1097.09 53.5659 0
-1097.16 44.257 0
-1097.2 35.4645 0
-1097.22 27.2194 0
-1097.19 19.5419 0
-1097.11 12.4463 0
-1096.98 5.95494 0
-1096.87 0.0184899 0
-1096.82 -5.51199 0
-1096.74 -10.7257 0
-1096.67 -15.6156 0
-1096.55 -20.1556 0
-1096.38 -24.2982 0
-1096.21 -28.0308 0
-1096.02 -31.3768 0
-1095.82 -34.3294 0
-1095.6 -36.8981 0
-1095.35 -39.1008 0
-1095.07 -40.9665 0
-1094.77 -42.501 0
-1094.42 -43.7273 0
-1094.03 -44.6778 0
-1093.6 -45.3681 0
-1093.13 -45.8183 0
-1092.6 -46.0425 0
-1092.03 -46.0664 0
-1091.41 -45.9086 0
-1090.73 -45.5766 0
-1090.01 -45.0888 0
-1089.22 -44.4603 0
-1088.39 -43.7002 0
-1087.52 -42.8266 0
-1086.59 -41.8465 0
-1085.62 -40.7736 0
-1084.6 -39.6151 0
-1083.54 -38.3851 0
-1082.43 -37.0847 0
-1081.28 -35.7324 0
-1080.08 -34.3366 0
-1078.85 -32.8972 0
-1077.58 -31.428 0
-1076.27 -29.9359 0
-1074.92 -28.4247 0
-1073.54 -26.9056 0
-1072.12 -25.3769 0
-1070.67 -23.8483 0
-1069.2 -22.3207 0
-1067.69 -20.8017 0
-1066.15 -19.2965 0
-1064.59 -17.8035 0
-1063.01 -16.3315 0
-1061.4 -14.885 0
-1059.77 -13.4592 0
-1058.12 -12.0713 0
-1056.45 -10.7079 0
-1054.76 -9.37451 0
-1053.05 -8.07747 0
-1051.33 -6.82045 0
-1049.6 -5.59783 0
-1047.85 -4.41622 0
-1046.08 -3.27673 0
-1044.3 -2.17758 0
-1042.52 -1.12228 0
-1040.72 -0.104821 0
-1038.92 0.863212 0
-1037.1 1.78705 0
-1035.28 2.66782 0
-1033.45 3.49914 0
-1031.61 4.28611 0
-1029.78 5.03005 0
-1027.93 5.73005 0
-1026.08 6.38425 0
-1024.23 6.99139 0
-1022.38 7.55663 0
-1020.53 8.07467 0
-1018.67 8.55023 0
-1016.82 8.9859 0
-1014.96 9.37673 0
-1013.1 9.7269 0
-1011.25 10.0362 0
-1009.4 10.3064 0
-1007.54 10.5342 0
-1005.69 10.7276 0
-1003.85 10.8802 0
-1002 10.9991 0
-1000.16 11.0845 0
-998.327 11.1331 0
-996.497 11.1493 0
-994.668 11.1299 0
-992.845 11.0811 0
-991.026 11.0051 0
-989.214 10.898 0
-987.408 10.7631 0
-985.605 10.6004 0
-983.807 10.4142 0
-982.016 10.205 0
-980.231 9.97449 0
-978.452 9.71847 0
-976.679 9.44612 0
-974.913 9.15424 0
-973.153 8.8448 0
-971.399 8.5185 0
-969.651 8.17384 0
-967.909 7.82006 0
-966.176 7.45259 0
-964.449 7.06807 0
-962.725 6.67252 0
-961.007 6.27265 0
-959.298 5.86072 0
-957.594 5.43989 0
-955.896 5.01517 0
-954.205 4.58637 0
-952.519 4.15345 0
-950.837 3.71815 0
-949.163 3.27883 0
-947.491 2.84014 0
-945.827 2.39962 0
-944.167 1.96344 0
-942.514 1.52327 0
-940.864 1.08915 0
-939.219 0.656733 0
-937.579 0.228556 0
-935.942 -0.195622 0
-934.311 -0.61453 0
-932.683 -1.02588 0
-931.058 -1.43236 0
-929.437 -1.83186 0
-927.819 -2.22302 0
-926.208 -2.6069 0
-924.599 -2.98279 0
-922.99 -3.34785 0
-921.383 -3.70187 0
-919.782 -4.04855 0
-918.182 -4.38368 0
-916.583 -4.70818 0
-914.987 -5.02007 0
-913.391 -5.32083 0
-911.801 -5.61336 0
-910.211 -5.89264 0
-908.621 -6.16305 0
-907.033 -6.41672 0
-905.446 -6.65976 0
-903.861 -6.89265 0
-902.276 -7.11184 0
-900.692 -7.31865 0
-899.108 -7.51674 0
-897.524 -7.69631 0
-895.94 -7.86849 0
-894.359 -8.02833 0
-892.775 -8.17334 0
-891.193 -8.30914 0
-889.609 -8.43022 0
-888.026 -8.54229 0
-886.443 -8.64359 0
-884.857 -8.7296 0
-883.272 -8.80379 0
-881.687 -8.87031 0
-880.101 -8.92322 0
-878.512 -8.9657 0
-876.923 -8.99903 0
-875.334 -9.02112 0
-873.743 -9.03644 0
-872.152 -9.03863 0
-870.56 -9.03224 0
-868.965 -9.01842 0
-867.371 -8.99744 0
-865.774 -8.96405 0
-864.175 -8.92466 0
-862.575 -8.87505 0
-860.973 -8.81985 0
-859.369 -8.75728 0
-857.765 -8.68824 0
-856.161 -8.61424 0
-854.554 -8.52896 0
-852.945 -8.44276 0
-851.335 -8.34976 0
-849.725 -8.25144 0
-848.111 -8.14645 0
-846.496 -8.03634 0
-844.879 -7.92313 0
-843.262 -7.80711 0
-841.644 -7.68528 0
-840.022 -7.5603 0
-838.397 -7.43454 0
-836.773 -7.30414 0
-835.148 -7.17122 0
-833.519 -7.03419 0
-831.889 -6.89509 0
-830.261 -6.75518 0
-828.628 -6.61395 0
-826.994 -6.47233 0
-825.359 -6.33085 0
-823.724 -6.18689 0
-822.086 -6.04293 0
-820.447 -5.9014 0
-818.807 -5.75451 0
-817.165 -5.61326 0
-815.522 -5.4686 0
-813.88 -5.32652 0
-812.235 -5.18212 0
-810.588 -5.04188 0
-808.941 -4.90186 0
-807.293 -4.76618 0
-805.644 -4.63026 0
-803.992 -4.496 0
-802.341 -4.36371 0
-800.689 -4.23363 0
-799.035 -4.10509 0
-797.383 -3.98271 0
-795.728 -3.85895 0
-794.073 -3.73515 0
-792.419 -3.6171 0
-790.762 -3.50264 0
-789.106 -3.38915 0
-787.451 -3.28243 0
-785.792 -3.17475 0
-784.134 -3.07139 0
-782.474 -2.97239 0
-780.814 -2.87281 0
-779.153 -2.77665 0
-777.493 -2.68605 0
-775.832 -2.59993 0
-774.172 -2.51622 0
-772.512 -2.43526 0
-770.849 -2.35923 0
-769.186 -2.28745 0
-767.524 -2.21764 0
-765.86 -2.1507 0
-764.199 -2.08832 0
-762.538 -2.03109 0
-760.875 -1.97728 0
-759.212 -1.92693 0
-757.552 -1.87592 0
-755.889 -1.8306 0
-754.227 -1.78867 0
-752.564 -1.75036 0
-750.902 -1.71301 0
-749.242 -1.68163 0
-747.581 -1.6537 0
-745.918 -1.62915 0
-744.257 -1.60474 0
-742.597 -1.5853 0
-740.939 -1.56962 0
-739.277 -1.55988 0
-737.619 -1.54931 0
-735.959 -1.53861 0
-734.301 -1.53494 0
-732.643 -1.53398 0
-730.981 -1.53475 0
-729.324 -1.53734 0
-727.667 -1.54279 0
-726.009 -1.55051 0
-724.353 -1.56304 0
-722.698 -1.57554 0
-721.04 -1.59132 0
-719.385 -1.60802 0
-717.731 -1.62688 0
-716.076 -1.64624 0
-714.423 -1.66832 0
-712.766 -1.69109 0
-711.114 -1.71436 0
-709.462 -1.7445 0
-707.807 -1.77578 0
-706.156 -1.80681 0
-704.503 -1.83958 0
-702.851 -1.87195 0
-701.201 -1.90509 0
-699.551 -1.94151 0
-697.901 -1.97691 0
-696.25 -2.0142 0
-694.602 -2.05323 0
-692.954 -2.09144 0
-691.304 -2.13328 0
-689.656 -2.17228 0
-688.009 -2.21096 0
-686.364 -2.25373 0
-684.717 -2.29708 0
-683.071 -2.34121 0
-681.424 -2.37954 0
-679.78 -2.42538 0
-678.135 -2.46607 0
-676.49 -2.51146 0
-674.846 -2.55415 0
-673.201 -2.59875 0
-671.557 -2.63914 0
-669.913 -2.67974 0
-668.268 -2.72239 0
-666.626 -2.76553 0
-664.986 -2.80929 0
-663.344 -2.85017 0
-661.703 -2.89152 0
-660.062 -2.93046 0
-658.422 -2.96889 0
-656.782 -3.01166 0
-655.138 -3.05057 0
-653.497 -3.08629 0
-651.858 -3.12451 0
-650.218 -3.15854 0
-648.581 -3.19588 0
-646.942 -3.23388 0
-645.303 -3.26405 0
-643.663 -3.29827 0
-642.024 -3.32982 0
-640.383 -3.36226 0
-638.742 -3.39293 0
-637.103 -3.4223 0
-635.465 -3.4556 0
-633.829 -3.48271 0
-632.189 -3.50867 0
-630.551 -3.53513 0
-628.911 -3.5593 0
-627.276 -3.58429 0
-625.638 -3.6039 0
-624.003 -3.62735 0
-622.365 -3.64649 0
-620.728 -3.66952 0
-619.09 -3.68689 0
-617.45 -3.70619 0
-615.81 -3.71997 0
-614.172 -3.73539 0
-612.537 -3.75298 0
-610.9 -3.76734 0
-609.263 -3.78084 0
-607.625 -3.79033 0
-605.985 -3.80286 0
-604.347 -3.81068 0
-602.708 -3.81754 0
-601.074 -3.82479 0
-599.437 -3.8298 0
-597.799 -3.83572 0
-596.162 -3.84046 0
-594.524 -3.84388 0
-592.885 -3.84965 0
-591.247 -3.85076 0
-589.609 -3.85434 0
-587.969 -3.85369 0
-586.329 -3.85213 0
-584.693 -3.84881 0
-583.054 -3.84853 0
-581.414 -3.84826 0
-579.776 -3.84426 0
-578.14 -3.83902 0
-576.499 -3.8337 0
-574.861 -3.82847 0
-573.22 -3.81867 0
-571.578 -3.81364 0
-569.939 -3.80815 0
-568.3 -3.7992 0
-566.659 -3.78667 0
-565.02 -3.7787 0
-563.378 -3.77021 0
-561.737 -3.7591 0
-560.098 -3.75012 0
-558.459 -3.73898 0
-556.819 -3.73191 0
-555.175 -3.72047 0
-553.533 -3.70715 0
-551.894 -3.69382 0
-550.252 -3.6836 0
-548.609 -3.66774 0
-546.968 -3.6563 0
-545.326 -3.64312 0
-543.682 -3.62775 0
-542.044 -3.61153 0
-540.398 -3.59607 0
-538.756 -3.58267 0
-537.113 -3.57021 0
-535.469 -3.55773 0
-533.827 -3.53836 0
-532.188 -3.52112 0
-530.547 -3.50651 0
-528.899 -3.49168 0
-527.257 -3.47482 0
-525.611 -3.45925 0
-523.973 -3.44866 0
-522.331 -3.43515 0
-520.688 -3.4219 0
-519.045 -3.40745 0
-517.401 -3.38997 0
-515.758 -3.37427 0
-514.114 -3.36231 0
-512.473 -3.34664 0
-510.828 -3.33563 0
-509.186 -3.32102 0
-507.542 -3.30488 0
-505.9 -3.29047 0
-504.257 -3.27867 0
-502.613 -3.26392 0
-500.97 -3.24942 0
-499.325 -3.23688 0
-497.679 -3.22669 0
-496.036 -3.21593 0
-494.391 -3.20474 0
-492.744 -3.19145 0
-491.102 -3.17882 0
-489.458 -3.16872 0
-487.813 -3.15245 0
-486.172 -3.14293 0
-484.524 -3.12782 0
-482.878 -3.11923 0
-481.237 -3.10601 0
-479.59 -3.10181 0
-477.948 -3.09186 0
-476.3 -3.08323 0
-474.659 -3.07201 0
-473.013 -3.06347 0
-471.37 -3.05561 0
-469.721 -3.0463 0
-468.075 -3.03747 0
-466.431 -3.03294 0
-464.786 -3.03063 0
-463.141 -3.02291 0
-461.498 -3.01748 0
-459.854 -3.01057 0
-458.208 -3.00663 0
-456.563 -3.00574 0
-454.921 -3.00038 0
-453.275 -2.99639 0
-451.63 -2.99157 0
-449.985 -2.98666 0
-448.338 -2.97995 0
-446.693 -2.97958 0
-445.046 -2.97678 0
-443.405 -2.97984 0
-441.764 -2.97431 0
-440.117 -2.97236 0
-438.476 -2.96976 0
-436.829 -2.96389 0
-435.182 -2.96341 0
-433.539 -2.96414 0
-431.896 -2.96111 0
-430.251 -2.96323 0
-428.607 -2.96633 0
-426.961 -2.96288 0
-425.319 -2.96231 0
-423.674 -2.96242 0
-422.029 -2.96191 0
-420.382 -2.96202 0
-418.736 -2.96778 0
-417.093 -2.9729 0
-415.448 -2.97286 0
-413.806 -2.97754 0
-412.162 -2.98124 0
-410.515 -2.98361 0
-408.874 -2.98594 0
-407.234 -2.98823 0
-405.587 -2.99308 0
-403.945 -2.99618 0
-402.302 -3.0011 0
-400.657 -3.00726 0
-399.013 -3.0087 0
-397.37 -3.01204 0
-395.725 -3.01713 0
-394.081 -3.01976 0
-392.441 -3.01832 0
-390.795 -3.0243 0
-389.152 -3.02653 0
-387.507 -3.02955 0
-385.868 -3.03264 0
-384.224 -3.03571 0
-382.581 -3.04345 0
-380.935 -3.04968 0
-379.292 -3.05739 0
-377.649 -3.06192 0
-376.01 -3.06409 0
-374.366 -3.07329 0
-372.721 -3.07429 0
-371.075 -3.07948 0
-369.435 -3.08401 0
-367.789 -3.09347 0
-366.149 -3.09837 0
-364.503 -3.10337 0
-362.863 -3.10942 0
-361.216 -3.11577 0
-359.576 -3.12221 0
-357.934 -3.12552 0
-356.292 -3.12611 0
-354.651 -3.13596 0
-353.008 -3.14246 0
-351.363 -3.14494 0
-349.723 -3.14904 0
-348.081 -3.15628 0
-346.442 -3.16216 0
-344.795 -3.16574 0
-343.154 -3.17601 0
-341.516 -3.17907 0
-339.873 -3.18615 0
-338.23 -3.18732 0
-336.587 -3.18898 0
-334.948 -3.19165 0
-333.305 -3.19689 0
-331.662 -3.19679 0
-330.018 -3.20897 0
-328.376 -3.21545 0
-326.731 -3.2119 0
-325.092 -3.21858 0
-323.447 -3.22173 0
-321.801 -3.22309 0
-320.163 -3.2273 0
-318.517 -3.233 0
-316.879 -3.23417 0
-315.235 -3.2392 0
-313.591 -3.24078 0
-311.953 -3.24084 0
-310.317 -3.24564 0
-308.674 -3.24873 0
-307.033 -3.25281 0
-305.392 -3.25738 0
-303.753 -3.26237 0
-302.112 -3.26296 0
-300.468 -3.26591 0
-298.825 -3.26743 0
-297.183 -3.27127 0
-295.541 -3.27261 0
-293.898 -3.27217 0
-292.256 -3.27442 0
-290.613 -3.27499 0
-288.973 -3.27873 0
-287.33 -3.28419 0
-285.687 -3.28473 0
-284.046 -3.28513 0
-282.406 -3.28911 0
-280.768 -3.28968 0
-279.126 -3.29246 0
-277.483 -3.29127 0
-275.838 -3.29125 0
-274.194 -3.29547 0
-272.556 -3.29062 0
-270.913 -3.29112 0
-269.269 -3.293 0
-267.626 -3.29143 0
-265.985 -3.29406 0
-264.344 -3.29594 0
-262.702 -3.29527 0
-261.058 -3.29605 0
-259.414 -3.29857 0
-257.771 -3.29871 0
-256.133 -3.29069 0
-254.488 -3.29343 0
-252.844 -3.29437 0
-251.202 -3.29432 0
-249.561 -3.29302 0
-247.92 -3.29788 0
-246.278 -3.29628 0
-244.637 -3.29444 0
-242.994 -3.29641 0
-241.351 -3.29729 0
-239.71 -3.29423 0
-238.066 -3.29855 0
-236.426 -3.29443 0
-234.79 -3.29639 0
-233.148 -3.29865 0
-231.504 -3.29811 0
-229.865 -3.29597 0
-228.223 -3.29161 0
-226.581 -3.29187 0
-224.938 -3.29264 0
-223.298 -3.29289 0
-221.656 -3.28644 0
-220.01 -3.29004 0
-218.371 -3.28648 0
-216.729 -3.2779 0
-215.086 -3.28491 0
-213.443 -3.28294 0
-211.802 -3.27971 0
-210.153 -3.27525 0
-208.509 -3.28283 0
-206.869 -3.27959 0
-205.227 -3.27438 0
-203.584 -3.27335 0
-201.944 -3.27122 0
-200.301 -3.26977 0
-198.657 -3.27353 0
-197.018 -3.27052 0
-195.377 -3.27069 0
-193.732 -3.26879 0
-192.093 -3.26353 0
-190.454 -3.26796 0
-188.811 -3.26887 0
-187.168 -3.26787 0
-185.524 -3.26205 0
-183.884 -3.25957 0
-182.236 -3.26049 0
-180.598 -3.25822 0
-178.96 -3.25967 0
-177.318 -3.25781 0
-175.675 -3.25564 0
-174.03 -3.25523 0
-172.387 -3.24934 0
-170.744 -3.25154 0
-169.101 -3.25113 0
-167.458 -3.24644 0
-165.816 -3.24863 0
-164.176 -3.24737 0
-162.536 -3.2461 0
-160.896 -3.2465 0
-159.247 -3.24262 0
-157.604 -3.24473 0
-155.964 -3.24324 0
-154.32 -3.24714 0
-152.678 -3.24688 0
-151.04 -3.25118 0
-149.392 -3.25271 0
-147.751 -3.24959 0
-146.111 -3.24758 0
-144.468 -3.24572 0
-142.829 -3.2431 0
-141.185 -3.24395 0
-139.541 -3.24002 0
-137.903 -3.23774 0
-136.256 -3.23637 0
-134.619 -3.23897 0
-132.974 -3.2398 0
-131.334 -3.24444 0
-129.688 -3.23796 0
-128.044 -3.23681 0
-126.399 -3.23697 0
-124.759 -3.24021 0
-123.12 -3.24166 0
-121.484 -3.2379 0
-119.839 -3.23926 0
-118.197 -3.24003 0
-116.553 -3.23562 0
-114.908 -3.23694 0
-113.269 -3.23591 0
-111.625 -3.23767 0
-109.987 -3.23709 0
-108.346 -3.24476 0
-106.703 -3.2409 0
-105.064 -3.24312 0
-103.421 -3.24197 0
-101.78 -3.23569 0
-100.134 -3.2374 0
-98.495 -3.24538 0
-96.8503 -3.24005 0
-95.2049 -3.24122 0
-93.5627 -3.24353 0
-91.9211 -3.24637 0
-90.2787 -3.24361 0
-88.6417 -3.24075 0
-87.0062 -3.24185 0
-85.3625 -3.24706 0
-83.7196 -3.24831 0
-82.0797 -3.24943 0
-80.4368 -3.25246 0
-78.7947 -3.25805 0
-77.1501 -3.25709 0
-75.5102 -3.25966 0
-73.8692 -3.26042 0
-72.2249 -3.2567 0
-70.5787 -3.25473 0
-68.9339 -3.2528 0
-67.2966 -3.25179 0
-65.6522 -3.24952 0
-64.0095 -3.252 0
-62.3688 -3.25149 0
-60.7307 -3.25411 0
-59.0885 -3.25968 0
-57.4486 -3.25723 0
-55.8095 -3.25929 0
-54.1654 -3.25104 0
-52.5272 -3.24822 0
-50.8829 -3.24823 0
-49.2405 -3.24538 0
-47.598 -3.2491 0
-45.9569 -3.24938 0
-44.3189 -3.25567 0
-42.6776 -3.25154 0
-41.0348 -3.25395 0
-39.3936 -3.25497 0
-37.7515 -3.24554 0
-36.1111 -3.24713 0
-34.4689 -3.24775 0
-32.8279 -3.25157 0
-31.1846 -3.25366 0
-29.5432 -3.26253 0
-27.906 -3.2607 0
-26.2632 -3.26272 0
-24.6211 -3.25867 0
-22.9773 -3.26297 0
-21.3381 -3.25849 0
-19.7024 -3.26195 0
-18.0604 -3.26005 0
-16.4181 -3.25942 0
-14.7734 -3.26082 0
-13.128 -3.25647 0
-11.4879 -3.25255 0
-9.84836 -3.25339 0
-8.20767 -3.26076 0
-6.56638 -3.25849 0
-4.92507 -3.25684 0
-3.28241 -3.25277 0
-1.64483 -3.25438 0
0 -3.26004 0
-1107.71 129.902 0
-1107.53 118.174 0
-1107.52 106.799 0
-1107.46 95.6551 0
-1107.35 84.7711 0
-1107.16 74.1788 0
-1106.89 63.9467 0
-1106.55 54.1392 0
-1106.16 44.8317 0
-1105.71 36.041 0
-1105.22 27.8031 0
-1104.67 20.1387 0
-1104.07 13.0542 0
-1103.47 6.54543 0
-1102.92 0.520326 0
-1102.42 -5.09151 0
-1101.97 -10.309 0
-1101.5 -15.1891 0
-1101 -19.7048 0
-1100.48 -23.8441 0
-1099.92 -27.5716 0
-1099.35 -30.9141 0
-1098.76 -33.8639 0
-1098.16 -36.43 0
-1097.56 -38.6324 0
-1096.95 -40.4763 0
-1096.31 -41.9968 0
-1095.67 -43.2046 0
-1095 -44.1261 0
-1094.32 -44.7869 0
-1093.61 -45.2019 0
-1092.86 -45.3913 0
-1092.09 -45.3749 0
-1091.28 -45.175 0
-1090.44 -44.8002 0
-1089.56 -44.2699 0
-1088.64 -43.5971 0
-1087.69 -42.7979 0
-1086.7 -41.8783 0
-1085.67 -40.8576 0
-1084.61 -39.7403 0
-1083.5 -38.543 0
-1082.36 -37.2686 0
-1081.19 -35.9335 0
-1079.99 -34.542 0
-1078.75 -33.105 0
-1077.48 -31.6316 0
-1076.17 -30.1288 0
-1074.84 -28.5991 0
-1073.47 -27.0599 0
-1072.08 -25.5039 0
-1070.66 -23.9469 0
-1069.21 -22.39 0
-1067.73 -20.8347 0
-1066.23 -19.2894 0
-1064.71 -17.758 0
-1063.17 -16.2426 0
-1061.6 -14.7469 0
-1060.01 -13.2811 0
-1058.41 -11.8368 0
-1056.78 -10.4268 0
-1055.14 -9.04436 0
-1053.48 -7.69663 0
-1051.81 -6.38541 0
-1050.13 -5.11229 0
-1048.43 -3.87642 0
-1046.71 -2.68413 0
-1044.99 -1.52996 0
-1043.26 -0.421613 0
-1041.51 0.644932 0
-1039.75 1.66909 0
-1037.99 2.64666 0
-1036.22 3.57904 0
-1034.44 4.46415 0
-1032.66 5.3009 0
-1030.87 6.09434 0
-1029.07 6.84279 0
-1027.27 7.54531 0
-1025.46 8.20377 0
-1023.66 8.81324 0
-1021.85 9.37928 0
-1020.04 9.90021 0
-1018.22 10.3781 0
-1016.41 10.8128 0
-1014.59 11.2031 0
-1012.78 11.5537 0
-1010.96 11.8605 0
-1009.15 12.131 0
-1007.33 12.3552 0
-1005.52 12.5473 0
-1003.71 12.6983 0
-1001.9 12.8148 0
-1000.09 12.8968 0
-998.292 12.9407 0
-996.491 12.9506 0
-994.693 12.9294 0
-992.901 12.8767 0
-991.112 12.7954 0
-989.327 12.6832 0
-987.544 12.5437 0
-985.767 12.3787 0
-983.995 12.1871 0
-982.227 11.9726 0
-980.462 11.7347 0
-978.704 11.475 0