<?xml version="1.0"?>
<VTKFile type="StructuredGrid"  version="0.1" byte_order="LittleEndian" compressor="vtkZLibDataCompressor">
  <StructuredGrid WholeExtent="0 700 0 30 0 0">
    <Piece Extent="0 700 0 30 0 0">
      <PointData Vectors="Velocity">
        <DataArray type="Float32" Name="Velocity" NumberOfComponents="3" format="ascii">
-1057.65 90.285 0
-1058.11 80.8489 0
-1058.62 71.5446 0
-1059.14 62.4547 0
-1059.69 53.6288 0
-1060.29 45.1384 0
-1060.93 37.0685 0
-1061.58 29.4689 0
-1062.24 22.3692 0
-1062.87 15.7936 0
-1063.48 9.76006 0
-1064.04 4.28871 0
-1064.53 -0.610267 0
-1064.91 -4.99524 0
-1065.1 -9.03774 0
-1065.31 -12.8456 0
-1065.56 -16.3473 0
-1065.83 -19.4704 0
-1066.06 -22.2039 0
-1066.25 -24.558 0
-1066.42 -26.5426 0
-1066.54 -28.1752 0
-1066.6 -29.4776 0
-1066.61 -30.4745 0
-1066.54 -31.1981 0
-1066.39 -31.6707 0
-1066.17 -31.9155 0
-1065.87 -31.9595 0
-1065.49 -31.823 0
-1065.04 -31.525 0
-1064.5 -31.0822 0
-1063.9 -30.5101 0
-1063.22 -29.8264 0
-1062.47 -29.0432 0
-1061.66 -28.1771 0
-1060.78 -27.2362 0
-1059.84 -26.2335 0
-1058.83 -25.1796 0
-1057.77 -24.0866 0
-1056.66 -22.9573 0
-1055.49 -21.8022 0
-1054.27 -20.6335 0
-1053.01 -19.4538 0
-1051.7 -18.2696 0
-1050.35 -17.0879 0
-1048.96 -15.9165 0
-1047.53 -14.7558 0
-1046.07 -13.6116 0
-1044.57 -12.492 0
-1043.04 -11.3943 0
-1041.49 -10.3227 0
-1039.91 -9.28239 0
-1038.3 -8.27576 0
-1036.67 -7.30302 0
-1035.02 -6.3659 0
-1033.35 -5.46757 0
-1031.67 -4.60949 0
-1029.97 -3.79114 0
-1028.25 -3.01377 0
-1026.52 -2.2774 0
-1024.78 -1.5844 0
-1023.03 -0.93438 0
-1021.27 -0.325224 0
-1019.5 0.239799 0
-1017.73 0.7632 0
-1015.95 1.24341 0
-1014.16 1.68358 0
-1012.37 2.08264 0
-1010.58 2.44092 0
-1008.79 2.76085 0
-1007 3.04029 0
-1005.2 3.28234 0
-1003.41 3.48733 0
-1001.62 3.65517 0
-999.828 3.78977 0
-998.039 3.89016 0
-996.254 3.95893 0
-994.473 3.99688 0
-992.697 4.00433 0
-990.923 3.98306 0
-989.156 3.93345 0
-987.393 3.85837 0
-985.637 3.7578 0
-983.887 3.63494 0
-982.144 3.49032 0
-980.407 3.32484 0
-978.677 3.13922 0
-976.952 2.93614 0
-975.236 2.71644 0
-973.526 2.48113 0
-971.823 2.23224 0
-970.126 1.97086 0
-968.439 1.69658 0
-966.759 1.41453 0
-965.086 1.12318 0
-963.419 0.824589 0
-961.758 0.518444 0
-960.107 0.208347 0
-958.463 -0.10766 0
-956.823 -0.424171 0
-955.19 -0.745055 0
-953.565 -1.06524 0
-951.947 -1.38313 0
-950.336 -1.7044 0
-948.728 -2.02061 0
-947.127 -2.33537 0
-945.529 -2.64671 0
-943.94 -2.95539 0
-942.354 -3.2549 0
-940.773 -3.5515 0
-939.195 -3.84099 0
-937.624 -4.1215 0
-936.055 -4.3968 0
-934.492 -4.66504 0
-932.932 -4.92387 0
-931.373 -5.17298 0
-929.819 -5.41307 0
-928.268 -5.64181 0
-926.719 -5.86443 0
-925.171 -6.07418 0
-923.626 -6.27643 0
-922.084 -6.46518 0
-920.543 -6.6435 0
-919.003 -6.8112 0
-917.462 -6.96758 0
-915.924 -7.11594 0
-914.386 -7.25099 0
-912.85 -7.37466 0
-911.314 -7.48793 0
-909.776 -7.59157 0
-908.239 -7.68325 0
-906.702 -7.76763 0
-905.167 -7.8398 0
-903.628 -7.90048 0
-902.089 -7.95216 0
-900.55 -7.99471 0
-899.008 -8.02902 0
-897.468 -8.05195 0
-895.925 -8.06835 0
-894.381 -8.07658 0
-892.836 -8.07402 0
-891.289 -8.06326 0
-889.739 -8.04631 0
-888.191 -8.0192 0
-886.642 -7.98958 0
-885.089 -7.95177 0
-883.533 -7.90658 0
-881.977 -7.85645 0
-880.42 -7.79924 0
-878.86 -7.73772 0
-877.298 -7.67224 0
-875.735 -7.59936 0
-874.171 -7.5233 0
-872.603 -7.44513 0
-871.031 -7.36053 0
-869.463 -7.27445 0
-867.89 -7.18528 0
-866.315 -7.0942 0
-864.737 -7.00013 0
-863.157 -6.90238 0
-861.575 -6.80654 0
-859.994 -6.706 0
-858.41 -6.60798 0
-856.825 -6.50563 0
-855.239 -6.40465 0
-853.651 -6.30092 0
-852.06 -6.19883 0
-850.466 -6.09628 0
-848.872 -5.99464 0
-847.276 -5.89509 0
-845.682 -5.79501 0
-844.085 -5.69627 0
-842.485 -5.59873 0
-840.885 -5.50011 0
-839.284 -5.40776 0
-837.681 -5.3141 0
-836.078 -5.22118 0
-834.474 -5.13135 0
-832.869 -5.0461 0
-831.263 -4.96147 0
-829.655 -4.88118 0
-828.046 -4.80047 0
-826.437 -4.72471 0
-824.828 -4.65075 0
-823.219 -4.58021 0
-821.609 -4.51434 0
-819.999 -4.44894 0
-818.387 -4.38446 0
-816.775 -4.32755 0
-815.165 -4.26758 0
-813.551 -4.21491 0
-811.939 -4.1668 0
-810.324 -4.12023 0
-808.712 -4.07604 0
-807.097 -4.03461 0
-805.485 -3.99767 0
-803.872 -3.96229 0
-802.257 -3.93047 0
-800.645 -3.90008 0
-799.034 -3.8752 0
-797.423 -3.85115 0
-795.809 -3.83231 0
-794.198 -3.81371 0
-792.586 -3.80049 0
-790.974 -3.78985 0
-789.362 -3.78172 0
-787.752 -3.77392 0
-786.142 -3.76979 0
-784.532 -3.76875 0
-782.92 -3.77086 0
-781.31 -3.77677 0
-779.701 -3.78015 0
-778.093 -3.7873 0
-776.484 -3.79689 0
-774.874 -3.80791 0
-773.265 -3.82456 0
-771.659 -3.83879 0
-770.054 -3.85452 0
-768.447 -3.87264 0
-766.841 -3.89562 0
-765.236 -3.91987 0
-763.631 -3.94151 0
-762.03 -3.96512 0
-760.427 -3.98748 0
-758.823 -4.01357 0
-757.22 -4.04124 0
-755.618 -4.06959 0
-754.017 -4.0941 0
-752.413 -4.12567 0
-750.812 -4.15667 0
-749.214 -4.18642 0
-747.617 -4.21881 0
-746.02 -4.25123 0
-744.419 -4.2809 0
-742.823 -4.31125 0
-741.226 -4.3448 0
-739.627 -4.37559 0
-738.031 -4.40639 0
-736.436 -4.43729 0
-734.84 -4.46793 0
-733.245 -4.50335 0
-731.652 -4.53403 0
-730.056 -4.56267 0
-728.461 -4.5941 0
-726.869 -4.6265 0
-725.274 -4.65713 0
-723.681 -4.68699 0
-722.087 -4.71373 0
-720.499 -4.73836 0
-718.908 -4.76587 0
-717.315 -4.79301 0
-715.724 -4.81753 0
-714.135 -4.84441 0
-712.541 -4.86825 0
-710.951 -4.88957 0
-709.36 -4.91258 0
-707.767 -4.93326 0
-706.175 -4.95378 0
-704.586 -4.9787 0
-703.001 -4.99388 0
-701.408 -5.01619 0
-699.82 -5.03341 0
-698.227 -5.04776 0
-696.638 -5.06492 0
-695.047 -5.08076 0
-693.459 -5.09104 0
-691.869 -5.1059 0
-690.281 -5.11697 0
-688.689 -5.12481 0
-687.099 -5.1338 0
-685.509 -5.14256 0
-683.919 -5.1518 0
-682.329 -5.16103 0
-680.741 -5.16684 0
-679.15 -5.17042 0
-677.558 -5.17672 0
-675.97 -5.18163 0
-674.382 -5.18492 0
-672.793 -5.18527 0
-671.201 -5.18418 0
-669.612 -5.18782 0
-668.02 -5.1867 0
-666.433 -5.19041 0
-664.843 -5.18539 0
-663.252 -5.18521 0
-661.663 -5.18362 0
-660.07 -5.18072 0
-658.479 -5.17881 0
-656.887 -5.17247 0
-655.297 -5.16638 0
-653.708 -5.1597 0
-652.116 -5.15292 0
-650.524 -5.14459 0
-648.93 -5.1375 0
-647.338 -5.12761 0
-645.745 -5.1206 0
-644.156 -5.1163 0
-642.561 -5.10798 0
-640.97 -5.09521 0
-639.378 -5.08735 0
-637.782 -5.07519 0
-636.193 -5.06752 0
-634.599 -5.056 0
-633.006 -5.04219 0
-631.416 -5.03274 0
-629.825 -5.02006 0
-628.228 -5.01029 0
-626.634 -4.99366 0
-625.036 -4.98457 0
-623.442 -4.97305 0
-621.849 -4.96528 0
-620.251 -4.95366 0
-618.656 -4.94258 0
-617.063 -4.93136 0
-615.469 -4.92222 0
-613.874 -4.9103 0
-612.279 -4.8981 0
-610.682 -4.88998 0
-609.089 -4.87262 0
-607.496 -4.86129 0
-605.899 -4.85494 0
-604.298 -4.8388 0
-602.703 -4.82714 0
-601.108 -4.81548 0
-599.513 -4.80794 0
-597.914 -4.79752 0
-596.317 -4.78532 0
-594.722 -4.77513 0
-593.127 -4.76564 0
-591.53 -4.76057 0
-589.934 -4.75053 0
-588.338 -4.74086 0
-586.741 -4.73602 0
-585.145 -4.72642 0
-583.551 -4.71706 0
-581.954 -4.70895 0
-580.355 -4.70218 0
-578.756 -4.69652 0
-577.163 -4.68784 0
-575.568 -4.68355 0
-573.967 -4.67411 0
-572.372 -4.66691 0
-570.776 -4.66084 0
-569.178 -4.65631 0
-567.58 -4.65684 0
-565.985 -4.64808 0
-564.39 -4.64333 0
-562.791 -4.63901 0
-561.192 -4.6346 0
-559.594 -4.63228 0
-557.995 -4.6309 0
-556.398 -4.62679 0
-554.804 -4.62246 0
-553.203 -4.62299 0
-551.607 -4.6215 0
-550.013 -4.61892 0
-548.42 -4.6165 0
-546.825 -4.61531 0
-545.225 -4.61441 0
-543.629 -4.61364 0
-542.033 -4.61413 0
-540.437 -4.61421 0
-538.84 -4.61501 0
-537.244 -4.61506 0
-535.647 -4.61591 0
-534.048 -4.61704 0
-532.451 -4.61117 0
-530.856 -4.61758 0
-529.262 -4.6139 0
-527.662 -4.6184 0
-526.064 -4.61897 0
-524.474 -4.61877 0
-522.877 -4.62306 0
-521.283 -4.62422 0
-519.685 -4.62666 0
-518.092 -4.62747 0
-516.496 -4.62893 0
-514.9 -4.63495 0
-513.306 -4.63592 0
-511.71 -4.6361 0
-510.117 -4.63954 0
-508.522 -4.64068 0
-506.922 -4.64972 0
-505.327 -4.65244 0
-503.731 -4.65564 0
-502.134 -4.65795 0
-500.54 -4.66443 0
-498.948 -4.66084 0
-497.352 -4.66974 0
-495.758 -4.67281 0
-494.164 -4.67464 0
-492.568 -4.67567 0
-490.971 -4.67899 0
-489.376 -4.6815 0
-487.783 -4.68685 0
-486.191 -4.69319 0
-484.596 -4.69552 0
-483.001 -4.70181 0
-481.411 -4.70081 0
-479.813 -4.70867 0
-478.221 -4.7076 0
-476.625 -4.70855 0
-475.028 -4.71374 0
-473.435 -4.7216 0
-471.84 -4.72053 0
-470.245 -4.72546 0
-468.65 -4.72856 0
-467.056 -4.73233 0
-465.468 -4.72776 0
-463.869 -4.73009 0
-462.278 -4.73668 0
-460.683 -4.73994 0
-459.086 -4.74384 0
-457.489 -4.7402 0
-455.893 -4.74347 0
-454.302 -4.74613 0
-452.713 -4.75245 0
-451.117 -4.75214 0
-449.523 -4.75469 0
-447.923 -4.75761 0
-446.33 -4.76257 0
-444.737 -4.76222 0
-443.142 -4.76471 0
-441.551 -4.76438 0
-439.958 -4.77079 0
-438.367 -4.76648 0
-436.766 -4.77086 0
-435.172 -4.77294 0
-433.584 -4.77406 0
-431.99 -4.77508 0
-430.39 -4.77471 0
-428.8 -4.77909 0
-427.206 -4.77912 0
-425.61 -4.7809 0
-424.017 -4.78318 0
-422.425 -4.77811 0
-420.827 -4.77468 0
-419.236 -4.77539 0
-417.64 -4.77773 0
-416.047 -4.77794 0
-414.451 -4.77507 0
-412.861 -4.7764 0
-411.264 -4.77928 0
-409.673 -4.77838 0
-408.081 -4.78256 0
-406.487 -4.78064 0
-404.894 -4.78096 0
-403.3 -4.78383 0
-401.708 -4.7814 0
-400.111 -4.775 0
-398.514 -4.7752 0
-396.917 -4.77699 0
-395.323 -4.77651 0
-393.731 -4.77599 0
-392.133 -4.77201 0
-390.537 -4.771 0
-388.946 -4.76754 0
-387.354 -4.76854 0
-385.757 -4.76937 0
-384.164 -4.76798 0
-382.567 -4.76237 0
-380.974 -4.76632 0
-379.381 -4.76657 0
-377.789 -4.76185 0
-376.193 -4.76374 0
-374.599 -4.75844 0
-373.006 -4.75684 0
-371.408 -4.7545 0
-369.816 -4.75322 0
-368.217 -4.75777 0
-366.623 -4.7536 0
-365.03 -4.75242 0
-363.435 -4.74943 0
-361.841 -4.74846 0
-360.248 -4.74694 0
-358.658 -4.75001 0
-357.058 -4.74751 0
-355.466 -4.74302 0
-353.87 -4.74499 0
-352.276 -4.74855 0
-350.682 -4.74689 0
-349.084 -4.74257 0
-347.489 -4.73637 0
-345.894 -4.73809 0
-344.302 -4.73445 0
-342.705 -4.73037 0
-341.112 -4.73102 0
-339.513 -4.73264 0
-337.918 -4.73088 0
-336.325 -4.73173 0
-334.734 -4.73431 0
-333.142 -4.73214 0
-331.549 -4.727 0
-329.951 -4.72323 0
-328.355 -4.72181 0
-326.762 -4.7296 0
-325.167 -4.72805 0
-323.572 -4.72608 0
-321.98 -4.72726 0
-320.391 -4.72819 0
-318.8 -4.7214 0
-317.202 -4.72468 0
-315.608 -4.72087 0
-314.014 -4.71726 0
-312.417 -4.72197 0
-310.823 -4.71706 0
-309.228 -4.71377 0
-307.631 -4.71157 0
-306.033 -4.71767 0
-304.44 -4.71968 0
-302.846 -4.72227 0
-301.25 -4.71934 0
-299.656 -4.71643 0
-298.059 -4.71528 0
-296.463 -4.71639 0
-294.869 -4.71735 0
-293.278 -4.72034 0
-291.687 -4.71534 0
-290.088 -4.71544 0
-288.496 -4.71151 0
-286.901 -4.71373 0
-285.306 -4.71511 0
-283.714 -4.7131 0
-282.116 -4.7172 0
-280.523 -4.71681 0
-278.928 -4.71669 0
-277.337 -4.71714 0
-275.743 -4.71356 0
-274.151 -4.71063 0
-272.556 -4.7089 0
-270.961 -4.7087 0
-269.363 -4.70982 0
-267.772 -4.70652 0
-266.181 -4.70734 0
-264.584 -4.70681 0
-262.991 -4.70217 0
-261.395 -4.71226 0
-259.8 -4.70683 0
-258.204 -4.70215 0
-256.613 -4.70334 0
-255.014 -4.70344 0
-253.419 -4.71163 0
-251.825 -4.71406 0
-250.229 -4.71545 0
-248.636 -4.71304 0
-247.042 -4.71392 0
-245.449 -4.71268 0
-243.853 -4.71165 0
-242.262 -4.71326 0
-240.666 -4.71911 0
-239.072 -4.71332 0
-237.477 -4.71256 0
-235.882 -4.71315 0
-234.291 -4.70692 0
-232.697 -4.71784 0
-231.104 -4.71695 0
-229.513 -4.71075 0
-227.921 -4.71214 0
-226.324 -4.71123 0
-224.731 -4.7168 0
-223.144 -4.71313 0
-221.545 -4.71258 0
-219.947 -4.71316 0
-218.352 -4.71571 0
-216.757 -4.70898 0
-215.163 -4.7126 0
-213.567 -4.71274 0
-211.975 -4.71298 0
-210.378 -4.71292 0
-208.786 -4.71332 0
-207.192 -4.71178 0
-205.598 -4.71069 0
-204.003 -4.71497 0
-202.408 -4.71456 0
-200.815 -4.71796 0
-199.22 -4.71267 0
-197.628 -4.7167 0
-196.035 -4.71405 0
-194.439 -4.71948 0
-192.84 -4.72079 0
-191.253 -4.7187 0
-189.658 -4.72069 0
-188.062 -4.72132 0
-186.471 -4.7165 0
-184.878 -4.7199 0
-183.28 -4.71877 0
-181.688 -4.72493 0
-180.096 -4.71686 0
-178.503 -4.72285 0
-176.908 -4.71836 0
-175.318 -4.7204 0
-173.721 -4.72139 0
-172.126 -4.72155 0
-170.531 -4.72586 0
-168.94 -4.71958 0
-167.347 -4.71954 0
-165.755 -4.72095 0
-164.159 -4.72274 0
-162.567 -4.72198 0
-160.971 -4.72438 0
-159.38 -4.72308 0
-157.787 -4.72249 0
-156.192 -4.72188 0
-154.597 -4.7255 0
-153 -4.72062 0
-151.405 -4.72669 0
-149.81 -4.72821 0
-148.22 -4.72638 0
-146.626 -4.7279 0
-145.03 -4.72329 0
-143.435 -4.7247 0
-141.845 -4.72355 0
-140.251 -4.72248 0
-138.651 -4.72427 0
-137.057 -4.72653 0
-135.464 -4.72403 0
-133.87 -4.72352 0
-132.277 -4.72756 0
-130.683 -4.72822 0
-129.094 -4.7243 0
-127.5 -4.72399 0
-125.909 -4.72578 0
-124.31 -4.72297 0
-122.715 -4.72621 0
-121.119 -4.72425 0
-119.524 -4.72019 0
-117.933 -4.72367 0
-116.342 -4.7244 0
-114.749 -4.72493 0
-113.154 -4.72505 0
-111.558 -4.72104 0
-109.963 -4.72058 0
-108.37 -4.72383 0
-106.777 -4.7239 0
-105.186 -4.72421 0
-103.594 -4.72033 0
-101.998 -4.71721 0
-100.407 -4.71798 0
-98.8139 -4.71995 0
-97.22 -4.72044 0
-95.6266 -4.72436 0
-94.0311 -4.72227 0
-92.4373 -4.72412 0
-90.842 -4.72649 0
-89.2469 -4.72499 0
-87.6478 -4.72016 0
-86.0532 -4.71575 0
-84.4597 -4.72004 0
-82.8709 -4.72136 0
-81.2784 -4.72276 0
-79.688 -4.72056 0
-78.095 -4.71979 0
-76.4996 -4.72167 0
-74.9087 -4.71492 0
-73.3121 -4.7205 0
-71.7172 -4.71808 0
-70.1222 -4.71837 0
-68.5289 -4.71978 0
-66.9341 -4.71782 0
-65.3442 -4.72163 0
-63.7524 -4.72043 0
-62.1611 -4.71866 0
-60.5624 -4.71903 0
-58.9726 -4.71843 0
-57.376 -4.71804 0
-55.7798 -4.71533 0
-54.187 -4.72044 0
-52.592 -4.72353 0
-51.0004 -4.71991 0
-49.4077 -4.72242 0
-47.8124 -4.71856 0
-46.2211 -4.7227 0
-44.629 -4.72559 0
-43.0328 -4.72464 0
-41.439 -4.72004 0
-39.8458 -4.71831 0
-38.252 -4.72152 0
-36.6592 -4.71988 0
-35.0644 -4.71496 0
-33.4677 -4.71487 0
-31.8728 -4.71856 0
-30.2801 -4.71354 0
-28.6916 -4.71455 0
-27.0952 -4.71831 0
-25.4959 -4.71078 0
-23.9074 -4.71456 0
-22.3102 -4.71522 0
-20.7149 -4.71442 0
-19.1242 -4.71893 0
-17.5318 -4.71671 0
-15.9343 -4.71559 0
-14.3413 -4.71696 0
-12.7502 -4.71346 0
-11.1545 -4.71534 0
-9.56173 -4.71878 0
-7.96738 -4.72159 0
-6.37245 -4.72106 0
-4.7786 -4.71891 0
-3.18612 -4.72018 0
-1.59289 -4.7184 0
0 -4.71908 0
-1067.09 90.7695 0
-1067.43 81.28 0
-1067.78 71.9443 0
-1068.1 62.8278 0
-1068.38 53.9631 0
-1068.62 45.4227 0
-1068.81 37.2927 0
-1068.98 29.6395 0
-1069.11 22.4997 0
-1069.19 15.8951 0
-1069.22 9.84682 0
-1069.19 4.37467 0
-1069.11 -0.517836 0
-1069.04 -4.8915 0
-1069.05 -8.93919 0
-1069.03 -12.7586 0
-1068.94 -16.2664 0
-1068.81 -19.395 0
-1068.66 -22.1286 0
-1068.49 -24.4764 0
-1068.29 -26.4479 0
-1068.07 -28.0559 0
-1067.81 -29.3237 0
-1067.51 -30.2777 0
-1067.17 -30.9501 0
-1066.78 -31.3653 0
-1066.34 -31.5477 0
-1065.85 -31.5295 0
-1065.29 -31.327 0
-1064.68 -30.963 0
-1064.01 -30.4557 0
-1063.28 -29.819 0
-1062.5 -29.0721 0
-1061.66 -28.2276 0
-1060.77 -27.3002 0
-1059.82 -26.3019 0
-1058.82 -25.2419 0
-1057.77 -24.1349 0
-1056.68 -22.9878 0
-1055.53 -21.8093 0
-1054.35 -20.6075 0
-1053.12 -19.3935 0
-1051.85 -18.1706 0
-1050.54 -16.9456 0
-1049.19 -15.7271 0
-1047.81 -14.5194 0
-1046.4 -13.3252 0
-1044.96 -12.1495 0
-1043.48 -10.9981 0
-1041.98 -9.87296 0
-1040.45 -8.77671 0
-1038.9 -7.71302 0
-1037.33 -6.68396 0
-1035.74 -5.69117 0
-1034.13 -4.73567 0
-1032.5 -3.82075 0
-1030.85 -2.94607 0
-1029.19 -2.1144 0
-1027.51 -1.32395 0
-1025.83 -0.57641 0
-1024.13 0.126805 0
-1022.42 0.786332 0
-1020.7 1.40307 0
-1018.97 1.97464 0
-1017.24 2.50283 0
-1015.5 2.98825 0
-1013.76 3.43263 0
-1012.01 3.83318 0
-1010.26 4.19482 0
-1008.5 4.51616 0
-1006.75 4.79655 0
-1004.99 5.03801 0
-1003.23 5.24169 0
-1001.48 5.40925 0
-999.718 5.54102 0
-997.963 5.63919 0
-996.209 5.70498 0
-994.458 5.73852 0
-992.709 5.74313 0
-990.964 5.71673 0
-989.223 5.66384 0
-987.485 5.58316 0
-985.752 5.47828 0
-984.024 5.34929 0
-982.3 5.19887 0
-980.583 5.0271 0
-978.87 4.83491 0
-977.164 4.62624 0
-975.462 4.39995 0
-973.767 4.15891 0
-972.077 3.90426 0
-970.393 3.63631 0
-968.716 3.35545 0
-967.043 3.06553 0
-965.377 2.76845 0
-963.717 2.46375 0
-962.064 2.15086 0
-960.417 1.83354 0
-958.775 1.5132 0
-957.139 1.18902 0
-955.508 0.862991 0
-953.883 0.537236 0
-952.263 0.211852 0
-950.649 -0.111811 0
-949.04 -0.435226 0
-947.435 -0.75489 0
-945.835 -1.07105 0
-944.238 -1.38362 0
-942.648 -1.68852 0
-941.062 -1.98918 0
-939.479 -2.28283 0
-937.899 -2.56752 0
-936.323 -2.84699 0
-934.751 -3.11753 0
-933.182 -3.3794 0
-931.615 -3.63149 0
-930.051 -3.87415 0
-928.49 -4.10644 0
-926.932 -4.3287 0
-925.374 -4.54284 0
-923.819 -4.74589 0
-922.265 -4.93651 0
-920.714 -5.11517 0
-919.161 -5.28465 0
-917.612 -5.44185 0
-916.062 -5.59016 0
-914.514 -5.72586 0
-912.965 -5.8503 0
-911.418 -5.96442 0
-909.872 -6.06754 0
-908.324 -6.16039 0
-906.778 -6.24351 0
-905.23 -6.3155 0
-903.683 -6.37621 0
-902.134 -6.42637 0
-900.586 -6.46825 0
-899.036 -6.50058 0
-897.485 -6.52449 0
-895.935 -6.54014 0
-894.383 -6.54509 0
-892.829 -6.54228 0
-891.275 -6.53018 0
-889.719 -6.51264 0
-888.163 -6.48596 0
-886.606 -6.45189 0
-885.047 -6.4129 0
-883.486 -6.36678 0
-881.924 -6.31435 0
-880.361 -6.25627 0
-878.796 -6.19443 0
-877.23 -6.12548 0
-875.663 -6.05139 0
-874.093 -5.97329 0
-872.521 -5.89162 0
-870.948 -5.80826 0
-869.374 -5.71995 0
-867.799 -5.62929 0
-866.221 -5.53511 0
-864.643 -5.43909 0
-863.061 -5.33962 0
-861.48 -5.24062 0
-859.896 -5.14058 0
-858.311 -5.04022 0
-856.724 -4.93862 0
-855.137 -4.83492 0
-853.549 -4.73041 0
-851.957 -4.62526 0
-850.364 -4.52279 0
-848.772 -4.41895 0
-847.179 -4.3184 0
-845.584 -4.21749 0
-843.987 -4.11617 0
-842.389 -4.01785 0
-840.79 -3.91956 0
-839.19 -3.82567 0
-837.59 -3.73069 0
-835.989 -3.63806 0
-834.387 -3.54636 0
-832.784 -3.4595 0
-831.18 -3.37458 0
-829.576 -3.29286 0
-827.97 -3.2132 0
-826.364 -3.13536 0
-824.757 -3.06114 0
-823.151 -2.99181 0
-821.543 -2.92377 0
-819.935 -2.85779 0
-818.327 -2.79462 0
-816.718 -2.73545 0
-815.108 -2.67727 0
-813.5 -2.62316 0
-811.89 -2.57305 0
-810.28 -2.52746 0
-808.668 -2.48265 0
-807.059 -2.44249 0
-805.449 -2.40435 0
-803.839 -2.36869 0
-802.229 -2.33772 0
-800.619 -2.30815 0
-799.011 -2.2829 0
-797.4 -2.25881 0
-795.789 -2.24011 0
-794.181 -2.22349 0
-792.573 -2.20921 0
-790.965 -2.19763 0
-789.356 -2.19011 0
-787.747 -2.18418 0
-786.139 -2.17902 0
-784.531 -2.17766 0
-782.923 -2.18017 0
-781.314 -2.18496 0
-779.707 -2.18923 0
-778.1 -2.19844 0
-776.493 -2.20776 0
-774.887 -2.21933 0
-773.283 -2.23526 0
-771.675 -2.25127 0
-770.069 -2.26704 0
-768.465 -2.28652 0
-766.864 -2.31055 0
-765.261 -2.33353 0
-763.657 -2.35685 0
-762.054 -2.37975 0
-760.452 -2.40411 0
-758.85 -2.42974 0
-757.247 -2.45812 0
-755.645 -2.48553 0
-754.044 -2.51341 0
-752.445 -2.54552 0
-750.846 -2.576 0
-749.248 -2.60665 0
-747.648 -2.63975 0
-746.048 -2.67105 0
-744.45 -2.70067 0
-742.852 -2.73358 0
-741.256 -2.76569 0
-739.66 -2.79786 0
-738.064 -2.8296 0
-736.467 -2.86119 0
-734.871 -2.89115 0
-733.276 -2.92674 0
-731.683 -2.95679 0
-730.086 -2.9861 0
-728.494 -3.01944 0
-726.898 -3.05063 0
-725.304 -3.08223 0
-723.712 -3.11074 0
-722.117 -3.13966 0
-720.523 -3.16761 0
-718.933 -3.19233 0
-717.341 -3.21982 0
-715.749 -3.2453 0
-714.156 -3.27112 0
-712.564 -3.29643 0
-710.974 -3.31667 0
-709.383 -3.34101 0
-707.789 -3.36 0
-706.198 -3.38073 0
-704.607 -3.40346 0
-703.017 -3.42244 0
-701.425 -3.44361 0
-699.834 -3.46049 0
-698.244 -3.4764 0
-696.654 -3.49194 0
-695.064 -3.50845 0
-693.473 -3.52263 0
-691.881 -3.53502 0
-690.292 -3.54512 0
-688.699 -3.55264 0
-687.109 -3.56054 0
-685.519 -3.57204 0
-683.928 -3.5795 0
-682.337 -3.59029 0
-680.747 -3.59469 0
-679.155 -3.59922 0
-677.565 -3.60499 0
-675.976 -3.60874 0
-674.384 -3.6151 0
-672.793 -3.616 0
-671.204 -3.61413 0
-669.613 -3.61354 0
-668.021 -3.61631 0
-666.432 -3.61821 0
-664.842 -3.61557 0
-663.253 -3.61144 0
-661.659 -3.61033 0
-660.066 -3.60702 0
-658.473 -3.60595 0
-656.884 -3.59967 0
-655.291 -3.59525 0
-653.7 -3.58639 0
-652.109 -3.57876 0
-650.516 -3.57146 0
-648.924 -3.56371 0
-647.331 -3.55363 0
-645.739 -3.54769 0
-644.147 -3.54198 0
-642.553 -3.53074 0
-640.96 -3.52087 0
-639.367 -3.51077 0
-637.774 -3.50094 0
-636.18 -3.49116 0
-634.588 -3.48073 0
-632.995 -3.46861 0
-631.403 -3.45925 0
-629.808 -3.44728 0
-628.216 -3.43314 0
-626.62 -3.42042 0
-625.028 -3.40886 0
-623.432 -3.39833 0
-621.839 -3.3888 0
-620.242 -3.37784 0
-618.647 -3.36603 0
-617.051 -3.35628 0
-615.457 -3.34567 0
-613.861 -3.33437 0
-612.267 -3.32334 0
-610.672 -3.31006 0
-609.078 -3.29719 0
-607.483 -3.28709 0
-605.885 -3.27491 0
-604.291 -3.2614 0
-602.694 -3.24839 0
-601.101 -3.23862 0
-599.503 -3.22709 0
-597.904 -3.21889 0
-596.31 -3.20782 0
-594.715 -3.19931 0
-593.118 -3.19047 0
-591.521 -3.18368 0
-589.925 -3.17087 0
-588.328 -3.16389 0
-586.735 -3.15675 0
-585.139 -3.14719 0
-583.541 -3.14049 0
-581.946 -3.13008 0
-580.349 -3.12325 0
-578.752 -3.11677 0
-577.156 -3.11153 0
-575.56 -3.10311 0
-573.965 -3.09804 0
-572.366 -3.08803 0
-570.77 -3.08226 0
-569.173 -3.0805 0
-567.575 -3.07517 0
-565.98 -3.07132 0
-564.384 -3.06571 0
-562.787 -3.05959 0
-561.19 -3.05462 0
-559.595 -3.05104 0
-557.996 -3.05031 0
-556.4 -3.04757 0
-554.799 -3.04503 0
-553.201 -3.04402 0
-551.607 -3.04319 0
-550.013 -3.0417 0
-548.417 -3.03856 0
-546.82 -3.03995 0
-545.226 -3.0352 0
-543.629 -3.03578 0
-542.032 -3.0369 0
-540.435 -3.03538 0
-538.841 -3.03773 0
-537.245 -3.03548 0
-535.645 -3.03561 0
-534.049 -3.03719 0
-532.453 -3.03673 0
-530.856 -3.0392 0
-529.258 -3.03681 0
-527.662 -3.03853 0
-526.068 -3.03922 0
-524.474 -3.04289 0
-522.877 -3.04629 0
-521.281 -3.04872 0
-519.688 -3.0486 0
-518.091 -3.05367 0
-516.498 -3.05382 0
-514.905 -3.05642 0
-513.309 -3.05981 0
-511.714 -3.05997 0
-510.119 -3.06477 0
-508.523 -3.0634 0
-506.931 -3.07055 0
-505.331 -3.07575 0
-503.738 -3.07784 0
-502.141 -3.08196 0
-500.546 -3.08356 0
-498.953 -3.08621 0
-497.359 -3.09172 0
-495.762 -3.09446 0
-494.166 -3.09598 0
-492.571 -3.09723 0
-490.975 -3.10425 0
-489.38 -3.10545 0
-487.788 -3.11099 0
-486.196 -3.11559 0
-484.599 -3.11835 0
-483.002 -3.12583 0
-481.408 -3.12624 0
-479.815 -3.13274 0
-478.222 -3.13321 0
-476.629 -3.13341 0
-475.033 -3.13941 0
-473.44 -3.14592 0
-471.845 -3.14575 0
-470.249 -3.15035 0
-468.656 -3.15106 0
-467.06 -3.15281 0
-465.464 -3.15318 0
-463.873 -3.15641 0
-462.279 -3.15863 0
-460.683 -3.16363 0
-459.089 -3.16789 0
-457.496 -3.16588 0
-455.901 -3.1686 0
-454.306 -3.17572 0
-452.711 -3.1768 0
-451.118 -3.17661 0
-449.524 -3.17966 0
-447.927 -3.18022 0
-446.332 -3.18785 0
-444.737 -3.18717 0
-443.142 -3.18872 0
-441.552 -3.19127 0
-439.96 -3.19047 0
-438.362 -3.19108 0
-436.768 -3.19295 0
-435.174 -3.19892 0
-433.578 -3.19829 0
-431.99 -3.19849 0
-430.395 -3.19814 0
-428.799 -3.20391 0
-427.202 -3.20185 0
-425.611 -3.20417 0
-424.015 -3.20597 0
-422.418 -3.20283 0
-420.828 -3.19818 0
-419.235 -3.19928 0
-417.642 -3.20164 0
-416.047 -3.20048 0
-414.453 -3.20238 0
-412.86 -3.19964 0
-411.267 -3.205 0
-409.672 -3.20444 0
-408.08 -3.20367 0
-406.489 -3.20469 0
-404.893 -3.20742 0
-403.298 -3.20601 0
-401.701 -3.20538 0
-400.111 -3.19995 0
-398.513 -3.19974 0
-396.916 -3.20022 0
-395.32 -3.20106 0
-393.726 -3.1996 0
-392.133 -3.19856 0
-390.539 -3.19715 0
-388.945 -3.19444 0
-387.349 -3.19252 0
-385.755 -3.19383 0
-384.161 -3.19277 0
-382.569 -3.18792 0
-380.972 -3.18993 0
-379.379 -3.18877 0
-377.785 -3.18876 0
-376.192 -3.18765 0
-374.596 -3.18068 0
-373.002 -3.18049 0
-371.409 -3.18249 0
-369.814 -3.17804 0
-368.219 -3.17754 0
-366.626 -3.17826 0
-365.03 -3.17657 0
-363.435 -3.17394 0
-361.843 -3.17509 0
-360.248 -3.17161 0
-358.652 -3.17136 0
-357.057 -3.16959 0
-355.463 -3.16784 0
-353.867 -3.16986 0
-352.272 -3.17006 0
-350.68 -3.17009 0
-349.085 -3.16527 0
-347.491 -3.16132 0
-345.894 -3.16355 0
-344.297 -3.15825 0
-342.703 -3.15477 0
-341.109 -3.15448 0
-339.515 -3.15503 0
-337.921 -3.1567 0
-336.33 -3.15565 0
-334.733 -3.15909 0
-333.139 -3.15424 0
-331.544 -3.15169 0
-329.949 -3.15092 0
-328.356 -3.14966 0
-326.764 -3.15025 0
-325.168 -3.14979 0
-323.574 -3.14881 0
-321.978 -3.15307 0
-320.384 -3.15289 0
-318.791 -3.14876 0
-317.199 -3.14281 0
-315.607 -3.14658 0
-314.013 -3.14187 0
-312.417 -3.1406 0
-310.82 -3.14112 0
-309.223 -3.13823 0
-307.63 -3.13823 0
-306.039 -3.14041 0
-304.443 -3.14339 0
-302.844 -3.14426 0
-301.248 -3.1416 0
-299.653 -3.14116 0
-298.064 -3.14114 0
-296.467 -3.14074 0
-294.873 -3.14303 0
-293.279 -3.14358 0
-291.683 -3.13924 0
-290.089 -3.13524 0
-288.496 -3.13777 0
-286.902 -3.14049 0
-285.309 -3.13974 0
-283.714 -3.14082 0
-282.12 -3.13844 0
-280.525 -3.13731 0
-278.931 -3.14263 0
-277.337 -3.14042 0
-275.741 -3.14083 0
-274.148 -3.13457 0
-272.554 -3.13503 0
-270.962 -3.13275 0
-269.365 -3.1358 0
-267.772 -3.13466 0
-266.176 -3.13562 0
-264.586 -3.13171 0
-262.99 -3.12898 0
-261.394 -3.13338 0
-259.797 -3.12934 0
-258.208 -3.12708 0
-256.613 -3.13089 0
-255.019 -3.12801 0
-253.424 -3.13404 0
-251.828 -3.13524 0
-250.234 -3.1368 0
-248.639 -3.13994 0
-247.044 -3.13747 0
-245.447 -3.13981 0
-243.853 -3.13844 0
-242.261 -3.13839 0
-240.665 -3.14099 0
-239.072 -3.13756 0
-237.479 -3.13593 0
-235.884 -3.13636 0
-234.293 -3.13551 0
-232.701 -3.13752 0
-231.108 -3.13884 0
-229.515 -3.13546 0
-227.92 -3.1379 0
-226.328 -3.13756 0
-224.73 -3.13867 0
-223.135 -3.1415 0
-221.543 -3.13436 0
-219.948 -3.13495 0
-218.348 -3.13705 0
-216.754 -3.13705 0
-215.162 -3.13632 0
-213.573 -3.13936 0
-211.974 -3.13841 0
-210.381 -3.13391 0
-208.787 -3.1377 0
-207.191 -3.13425 0
-205.596 -3.13518 0
-204.002 -3.13909 0
-202.406 -3.13827 0
-200.814 -3.14212 0
-199.221 -3.14064 0
-197.627 -3.1425 0
-196.034 -3.13921 0
-194.442 -3.14197 0
-192.847 -3.14442 0
-191.249 -3.14463 0
-189.658 -3.1435 0
-188.065 -3.14834 0
-186.47 -3.14313 0
-184.878 -3.14335 0
-183.284 -3.1456 0
-181.69 -3.14833 0
-180.094 -3.14721 0
-178.504 -3.14678 0
-176.91 -3.14619 0
-175.315 -3.1463 0
-173.719 -3.14576 0
-172.125 -3.14641 0
-170.53 -3.14711 0
-168.936 -3.14545 0
-167.346 -3.14502 0
-165.752 -3.14454 0
-164.161 -3.14731 0
-162.565 -3.14547 0
-160.97 -3.14544 0
-159.378 -3.14634 0
-157.784 -3.1459 0
-156.19 -3.14563 0
-154.596 -3.14733 0
-153 -3.14666 0
-151.406 -3.14923 0
-149.812 -3.15174 0
-148.216 -3.15183 0
-146.621 -3.15062 0
-145.03 -3.14797 0
-143.438 -3.14982 0
-141.842 -3.14895 0
-140.247 -3.14519 0
-138.652 -3.14686 0
-137.056 -3.14956 0
-135.465 -3.14972 0
-133.871 -3.14962 0
-132.278 -3.15141 0
-130.683 -3.14888 0
-129.09 -3.15034 0
-127.496 -3.14937 0
-125.901 -3.14982 0
-124.308 -3.14694 0
-122.714 -3.14767 0
-121.119 -3.14592 0
-119.526 -3.14678 0
-117.934 -3.1503 0
-116.34 -3.15112 0
-114.745 -3.14986 0
-113.15 -3.14821 0
-111.556 -3.14761 0
-109.965 -3.14777 0
-108.373 -3.14868 0
-106.779 -3.14726 0
-105.186 -3.14877 0
-103.592 -3.14412 0
-101.999 -3.14222 0
-100.408 -3.1428 0
-98.8127 -3.14425 0
-97.2203 -3.14223 0
-95.6287 -3.14784 0
-94.0345 -3.14679 0
-92.4394 -3.14654 0
-90.8442 -3.1481 0
-89.2455 -3.14937 0
-87.6507 -3.14149 0
-86.0585 -3.14123 0
-84.4647 -3.1467 0
-82.8716 -3.14904 0
-81.2775 -3.14637 0
-79.6844 -3.14507 0
-78.0923 -3.14605 0
-76.5002 -3.14569 0
-74.9058 -3.14383 0
-73.3153 -3.14415 0
-71.7201 -3.14263 0
-70.1252 -3.1429 0
-68.5302 -3.14602 0
-66.9373 -3.14639 0
-65.3436 -3.14417 0
-63.7476 -3.14654 0
-62.1571 -3.14211 0
-60.5626 -3.14286 0
-58.973 -3.14334 0
-57.3762 -3.14072 0
-55.78 -3.14219 0
-54.1853 -3.14462 0
-52.5914 -3.14525 0
-51 -3.14623 0
-49.4056 -3.1465 0
-47.8127 -3.1439 0
-46.2198 -3.14947 0
-44.6254 -3.15082 0
-43.0302 -3.14964 0
-41.4358 -3.14472 0
-39.8442 -3.1422 0
-38.2522 -3.14446 0
-36.6577 -3.14294 0
-35.0627 -3.13949 0
-33.4702 -3.13868 0
-31.8739 -3.1412 0
-30.2799 -3.13989 0
-28.6867 -3.14281 0
-27.0927 -3.14055 0
-25.4985 -3.13917 0
-23.9027 -3.14025 0
-22.313 -3.13951 0
-20.7181 -3.14072 0
-19.1239 -3.14259 0
-17.529 -3.13976 0
-15.9354 -3.1398 0
-14.3423 -3.14107 0
-12.7463 -3.13968 0
-11.1555 -3.14472 0
-9.56052 -3.14304 0
-7.96695 -3.14519 0
-6.37284 -3.14596 0
-4.77933 -3.14511 0
-3.18526 -3.14428 0
-1.59017 -3.146 0
0 -3.14661 0
-1076.78 91.6208 0
-1076.72 81.8946 0
-1076.84 72.5469 0
-1076.9 63.4382 0
-1076.88 54.5981 0
-1076.78 46.0791 0
-1076.58 37.9524 0
-1076.3 30.2878 0
-1075.96 23.1345 0
-1075.56 16.5251 0
-1075.09 10.4799 0
-1074.57 5.00099 0
-1074.05 0.06692 0
-1073.59 -4.42922 0
-1073.18 -8.56054 0
-1072.81 -12.3558 0
-1072.39 -15.8279 0
-1071.91 -18.9407 0
-1071.39 -21.6766 0
-1070.85 -24.0264 0
-1070.29 -25.9955 0
-1069.71 -27.5982 0
-1069.12 -28.8577 0
-1068.52 -29.7942 0
-1067.9 -30.4414 0
-1067.26 -30.8248 0
-1066.59 -30.9722 0
-1065.89 -30.9131 0
-1065.16 -30.6663 0
-1064.38 -30.255 0
-1063.57 -29.7 0
-1062.72 -29.0154 0
-1061.83 -28.2198 0
-1060.89 -27.3271 0
-1059.92 -26.352 0
-1058.9 -25.3065 0
-1057.84 -24.2007 0
-1056.75 -23.0486 0
-1055.61 -21.8583 0
-1054.44 -20.6389 0
-1053.23 -19.3971 0
-1051.98 -18.1437 0
-1050.7 -16.8846 0
-1049.39 -15.6262 0
-1048.05 -14.373 0
-1046.68 -13.1345 0
-1045.28 -11.9108 0
-1043.86 -10.7075 0
-1042.4 -9.52862 0
-1040.93 -8.37985 0
-1039.43 -7.26077 0
-1037.91 -6.17545 0
-1036.37 -5.12613 0
-1034.81 -4.11509 0
-1033.24 -3.14258 0
-1031.64 -2.21216 0
-1030.04 -1.32313 0
-1028.41 -0.477279 0
-1026.78 0.325569 0
-1025.13 1.08334 0
-1023.47 1.79771 0
-1021.81 2.46557 0
-1020.13 3.08978 0
-1018.44 3.66766 0
-1016.75 4.2029 0
-1015.05 4.69335 0
-1013.35 5.14202 0
-1011.64 5.54787 0
-1009.93 5.91107 0
-1008.21 6.23411 0
-1006.49 6.51586 0
-1004.77 6.75754 0
-1003.05 6.96209 0
-1001.33 7.12976 0
-999.603 7.26089 0
-997.881 7.35822 0
-996.159 7.42125 0
-994.437 7.45281 0
-992.717 7.4546 0
-991 7.4267 0
-989.283 7.36896 0
-987.571 7.28476 0
-985.862 7.17611 0
-984.155 7.04291 0
-982.453 6.88703 0
-980.755 6.7117 0
-979.06 6.5144 0
-977.37 6.30024 0
-975.685 6.06938 0
-974.003 5.82332 0
-972.326 5.56303 0
-970.654 5.28973 0
-968.986 5.00474 0
-967.323 4.70935 0
-965.665 4.40625 0
-964.012 4.09595 0
-962.365 3.77671 0
-960.722 3.45473 0
-959.083 3.12945 0
-957.449 2.80193 0
-955.82 2.47039 0
-954.195 2.13946 0
-952.575 1.8089 0
-950.959 1.48102 0
-949.348 1.15254 0
-947.74 0.828356 0
-946.137 0.508993 0