<?xml version="1.0"?>
<VTKFile type="StructuredGrid"  version="0.1" byte_order="LittleEndian" compressor="vtkZLibDataCompressor">
  <StructuredGrid WholeExtent="0 700 0 30 0 0">
    <Piece Extent="0 700 0 30 0 0">
      <PointData Vectors="Velocity">
        <DataArray type="Float32" Name="Velocity" NumberOfComponents="3" format="ascii">
-1038.17 79.0677 0
-1038.69 70.3056 0
-1039.26 61.6742 0
-1039.85 53.2576 0
-1040.46 45.114 0
-1041.12 37.3252 0
-1041.81 29.9685 0
-1042.51 23.0892 0
-1043.2 16.7117 0
-1043.86 10.8557 0
-1044.48 5.53964 0
-1045.04 0.782331 0
-1045.5 -3.42379 0
-1045.78 -7.18425 0
-1046.01 -10.673 0
-1046.22 -13.9276 0
-1046.48 -16.8478 0
-1046.72 -19.39 0
-1046.93 -21.5582 0
-1047.1 -23.3652 0
-1047.23 -24.8266 0
-1047.31 -25.9652 0
-1047.31 -26.8064 0
-1047.25 -27.3797 0
-1047.11 -27.7131 0
-1046.88 -27.8333 0
-1046.58 -27.7638 0
-1046.19 -27.5272 0
-1045.72 -27.1439 0
-1045.17 -26.6303 0
-1044.55 -26.0051 0
-1043.86 -25.2832 0
-1043.09 -24.4785 0
-1042.26 -23.6032 0
-1041.36 -22.6702 0
-1040.4 -21.69 0
-1039.38 -20.6729 0
-1038.3 -19.6284 0
-1037.17 -18.5638 0
-1035.98 -17.4874 0
-1034.75 -16.4066 0
-1033.48 -15.3271 0
-1032.16 -14.2562 0
-1030.8 -13.1971 0
-1029.4 -12.1549 0
-1027.97 -11.1346 0
-1026.51 -10.1394 0
-1025.01 -9.17181 0
-1023.49 -8.23444 0
-1021.94 -7.33082 0
-1020.37 -6.46183 0
-1018.78 -5.6312 0
-1017.17 -4.8381 0
-1015.54 -4.08328 0
-1013.89 -3.36995 0
-1012.22 -2.69733 0
-1010.55 -2.06638 0
-1008.86 -1.47661 0
-1007.16 -0.93047 0
-1005.46 -0.424522 0
-1003.74 0.0406936 0
-1002.02 0.464042 0
-1000.3 0.848324 0
-998.565 1.19292 0
-996.83 1.49779 0
-995.093 1.76462 0
-993.356 1.99341 0
-991.617 2.18809 0
-989.879 2.34798 0
-988.141 2.47231 0
-986.405 2.56563 0
-984.672 2.62684 0
-982.943 2.65838 0
-981.216 2.66186 0
-979.493 2.63938 0
-977.775 2.58883 0
-976.061 2.51514 0
-974.353 2.41837 0
-972.65 2.29915 0
-970.955 2.16025 0
-969.264 2.00385 0
-967.579 1.8302 0
-965.901 1.63926 0
-964.229 1.43514 0
-962.563 1.21716 0
-960.906 0.986905 0
-959.255 0.746638 0
-957.611 0.496949 0
-955.974 0.239432 0
-954.343 -0.0243143 0
-952.719 -0.29314 0
-951.103 -0.567908 0
-949.493 -0.844293 0
-947.889 -1.12414 0
-946.292 -1.40523 0
-944.702 -1.68469 0
-943.116 -1.96311 0
-941.537 -2.24163 0
-939.964 -2.51696 0
-938.397 -2.78757 0
-936.834 -3.05414 0
-935.276 -3.31894 0
-933.722 -3.57372 0
-932.173 -3.8246 0
-930.63 -4.06587 0
-929.088 -4.30117 0
-927.552 -4.5311 0
-926.019 -4.75153 0
-924.488 -4.96079 0
-922.961 -5.16268 0
-921.435 -5.35618 0
-919.913 -5.53966 0
-918.392 -5.71325 0
-916.875 -5.87617 0
-915.356 -6.02864 0
-913.84 -6.17253 0
-912.325 -6.30535 0
-910.811 -6.42892 0
-909.299 -6.5422 0
-907.785 -6.64447 0
-906.273 -6.73645 0
-904.762 -6.81901 0
-903.25 -6.89371 0
-901.738 -6.95833 0
-900.225 -7.01172 0
-898.711 -7.05541 0
-897.197 -7.0911 0
-895.681 -7.11951 0
-894.165 -7.13569 0
-892.648 -7.14647 0
-891.129 -7.15018 0
-889.609 -7.14505 0
-888.089 -7.13279 0
-886.567 -7.11199 0
-885.043 -7.08396 0
-883.518 -7.05275 0
-881.99 -7.01418 0
-880.462 -6.96999 0
-878.931 -6.92227 0
-877.399 -6.8688 0
-875.864 -6.81125 0
-874.328 -6.74884 0
-872.79 -6.68173 0
-871.25 -6.60915 0
-869.708 -6.53759 0
-868.167 -6.46083 0
-866.622 -6.38062 0
-865.074 -6.30057 0
-863.526 -6.21818 0
-861.975 -6.13396 0
-860.423 -6.04741 0
-858.869 -5.96029 0
-857.316 -5.87265 0
-855.758 -5.78431 0
-854.197 -5.69802 0
-852.637 -5.60825 0
-851.076 -5.52333 0
-849.512 -5.43556 0
-847.95 -5.35063 0
-846.384 -5.26623 0
-844.818 -5.18082 0
-843.25 -5.09536 0
-841.68 -5.0149 0
-840.109 -4.93496 0
-838.537 -4.85951 0
-836.966 -4.78387 0
-835.392 -4.70906 0
-833.818 -4.63851 0
-832.243 -4.56838 0
-830.666 -4.50236 0
-829.092 -4.43888 0
-827.515 -4.37649 0
-825.938 -4.31637 0
-824.361 -4.25924 0
-822.783 -4.20467 0
-821.202 -4.15585 0
-819.624 -4.10705 0
-818.042 -4.06391 0
-816.462 -4.02134 0
-814.882 -3.98122 0
-813.302 -3.94587 0
-811.723 -3.91271 0
-810.143 -3.87969 0
-808.562 -3.85227 0
-806.982 -3.82651 0
-805.402 -3.8053 0
-803.822 -3.78692 0
-802.241 -3.77077 0
-800.663 -3.75649 0
-799.082 -3.74298 0
-797.504 -3.73362 0
-795.924 -3.72572 0
-794.344 -3.72007 0
-792.766 -3.72045 0
-791.189 -3.71917 0
-789.609 -3.72491 0
-788.032 -3.73006 0
-786.454 -3.73717 0
-784.879 -3.74813 0
-783.304 -3.75877 0
-781.726 -3.76877 0
-780.152 -3.78196 0
-778.579 -3.79888 0
-777.004 -3.81475 0
-775.431 -3.83219 0
-773.858 -3.85222 0
-772.286 -3.87458 0
-770.715 -3.89774 0
-769.144 -3.91692 0
-767.575 -3.93807 0
-766.002 -3.96487 0
-764.431 -3.99309 0
-762.863 -4.01539 0
-761.292 -4.04047 0
-759.722 -4.0711 0
-758.154 -4.10109 0
-756.589 -4.12541 0
-755.022 -4.15597 0
-753.456 -4.18292 0
-751.889 -4.209 0
-750.322 -4.23812 0
-748.753 -4.26812 0
-747.193 -4.2967 0
-745.629 -4.32568 0
-744.065 -4.35269 0
-742.499 -4.37828 0
-740.935 -4.40831 0
-739.372 -4.43687 0
-737.811 -4.46461 0
-736.25 -4.49101 0
-734.687 -4.51357 0
-733.124 -4.53973 0
-731.564 -4.56121 0
-730.003 -4.58974 0
-728.445 -4.60806 0
-726.881 -4.62829 0
-725.321 -4.65201 0
-723.76 -4.67388 0
-722.2 -4.70052 0
-720.641 -4.71399 0
-719.082 -4.73109 0
-717.521 -4.74735 0
-715.961 -4.76509 0
-714.404 -4.7838 0
-712.845 -4.79606 0
-711.286 -4.8085 0
-709.725 -4.81964 0
-708.166 -4.83215 0
-706.607 -4.84579 0
-705.047 -4.85691 0
-703.487 -4.8658 0
-701.931 -4.87478 0
-700.37 -4.87996 0
-698.812 -4.89182 0
-697.252 -4.89389 0
-695.692 -4.90258 0
-694.132 -4.90405 0
-692.573 -4.91022 0
-691.014 -4.91415 0
-689.457 -4.91294 0
-687.897 -4.91358 0
-686.337 -4.91714 0
-684.777 -4.91244 0
-683.214 -4.9117 0
-681.653 -4.91089 0
-680.094 -4.91086 0
-678.537 -4.91011 0
-676.976 -4.90651 0
-675.415 -4.90418 0
-673.851 -4.89873 0
-672.294 -4.89366 0
-670.732 -4.8892 0
-669.169 -4.88193 0
-667.607 -4.87905 0
-666.049 -4.87375 0
-664.488 -4.8652 0
-662.925 -4.85447 0
-661.362 -4.84753 0
-659.8 -4.83951 0
-658.237 -4.8298 0
-656.674 -4.82586 0
-655.111 -4.8135 0
-653.55 -4.80634 0
-651.985 -4.79726 0
-650.422 -4.78996 0
-648.859 -4.78207 0
-647.301 -4.77234 0
-645.737 -4.76171 0
-644.17 -4.75176 0
-642.603 -4.74236 0
-641.042 -4.73455 0
-639.483 -4.72293 0
-637.915 -4.71172 0
-636.352 -4.70601 0
-634.787 -4.70042 0
-633.222 -4.69168 0
-631.658 -4.67989 0
-630.093 -4.67121 0
-628.529 -4.66013 0
-626.965 -4.65087 0
-625.402 -4.64378 0
-623.835 -4.63789 0
-622.27 -4.62788 0
-620.706 -4.62361 0
-619.141 -4.61008 0
-617.574 -4.60295 0
-616.011 -4.59565 0
-614.445 -4.59034 0
-612.882 -4.58255 0
-611.314 -4.57711 0
-609.751 -4.56769 0
-608.186 -4.56192 0
-606.619 -4.5595 0
-605.054 -4.55075 0
-603.489 -4.54545 0
-601.924 -4.5386 0
-600.357 -4.53931 0
-598.791 -4.53431 0
-597.224 -4.5276 0
-595.656 -4.5233 0
-594.093 -4.51645 0
-592.526 -4.51261 0
-590.958 -4.51394 0
-589.391 -4.50853 0
-587.827 -4.50543 0
-586.262 -4.50774 0
-584.697 -4.50247 0
-583.132 -4.49701 0
-581.566 -4.50038 0
-580.003 -4.49684 0
-578.436 -4.49245 0
-576.872 -4.48988 0
-575.304 -4.49022 0
-573.741 -4.4897 0
-572.177 -4.48701 0
-570.611 -4.48742 0
-569.045 -4.49044 0
-567.478 -4.49006 0
-565.911 -4.49147 0
-564.349 -4.49228 0
-562.785 -4.49477 0
-561.218 -4.4966 0
-559.652 -4.49458 0
-558.088 -4.49067 0
-556.521 -4.49581 0
-554.953 -4.49734 0
-553.389 -4.50212 0
-551.826 -4.50253 0
-550.261 -4.50746 0
-548.699 -4.50897 0
-547.132 -4.51173 0
-545.569 -4.51183 0
-544.001 -4.51307 0
-542.437 -4.51968 0
-540.873 -4.52269 0
-539.308 -4.52635 0
-537.745 -4.5297 0
-536.182 -4.52962 0
-534.616 -4.53502 0
-533.05 -4.53813 0
-531.487 -4.54016 0
-529.921 -4.54398 0
-528.353 -4.54598 0
-526.789 -4.55036 0
-525.224 -4.55433 0
-523.661 -4.55666 0
-522.101 -4.55661 0
-520.537 -4.56036 0
-518.974 -4.56779 0
-517.411 -4.57212 0
-515.847 -4.57151 0
-514.283 -4.57389 0
-512.718 -4.5787 0
-511.157 -4.57934 0
-509.594 -4.58627 0
-508.031 -4.58864 0
-506.465 -4.58904 0
-504.899 -4.59294 0
-503.336 -4.59366 0
-501.774 -4.59604 0
-500.213 -4.59792 0
-498.646 -4.60308 0
-497.084 -4.60451 0
-495.518 -4.60683 0
-493.957 -4.60868 0
-492.393 -4.61278 0
-490.83 -4.61503 0
-489.267 -4.61704 0
-487.705 -4.62084 0
-486.138 -4.62204 0
-484.573 -4.6228 0
-483.014 -4.62847 0
-481.448 -4.62622 0
-479.888 -4.62644 0
-478.327 -4.62719 0
-476.765 -4.63033 0
-475.203 -4.63587 0
-473.638 -4.63558 0
-472.068 -4.6326 0
-470.505 -4.63522 0
-468.946 -4.64042 0
-467.383 -4.6432 0
-465.821 -4.63962 0
-464.255 -4.63806 0
-462.69 -4.64587 0
-461.129 -4.64351 0
-459.568 -4.63829 0
-458.004 -4.63973 0
-456.441 -4.64193 0
-454.876 -4.64223 0
-453.314 -4.63999 0
-451.745 -4.64074 0
-450.186 -4.64399 0
-448.621 -4.64342 0
-447.062 -4.64249 0
-445.493 -4.64232 0
-443.931 -4.63854 0
-442.364 -4.63899 0
-440.806 -4.64294 0
-439.241 -4.64055 0
-437.68 -4.645 0
-436.117 -4.64795 0
-434.554 -4.64247 0
-432.991 -4.64377 0
-431.425 -4.63765 0
-429.863 -4.63942 0
-428.301 -4.64027 0
-426.738 -4.63794 0
-425.172 -4.63948 0
-423.613 -4.63909 0
-422.045 -4.63892 0
-420.483 -4.63165 0
-418.916 -4.6306 0
-417.354 -4.63044 0
-415.796 -4.63387 0
-414.233 -4.63292 0
-412.669 -4.63185 0
-411.099 -4.63087 0
-409.534 -4.6289 0
-407.97 -4.62447 0
-406.405 -4.62829 0
-404.843 -4.6249 0
-403.276 -4.62708 0
-401.715 -4.62822 0
-400.151 -4.63116 0
-398.591 -4.62771 0
-397.026 -4.62673 0
-395.461 -4.62372 0
-393.893 -4.62159 0
-392.331 -4.62091 0
-390.77 -4.61824 0
-389.21 -4.61722 0
-387.648 -4.61743 0
-386.082 -4.61803 0
-384.519 -4.61517 0
-382.956 -4.61596 0
-381.395 -4.61137 0
-379.829 -4.6094 0
-378.264 -4.61374 0
-376.7 -4.61713 0
-375.134 -4.61498 0
-373.573 -4.6113 0
-372.009 -4.61085 0
-370.444 -4.61294 0
-368.882 -4.61344 0
-367.312 -4.61073 0
-365.752 -4.60976 0
-364.191 -4.61214 0
-362.63 -4.60409 0
-361.061 -4.61012 0
-359.497 -4.60703 0
-357.933 -4.61221 0
-356.371 -4.61078 0
-354.808 -4.61506 0
-353.25 -4.61427 0
-351.684 -4.60881 0
-350.122 -4.60674 0
-348.555 -4.61005 0
-346.992 -4.60808 0
-345.424 -4.6145 0
-343.861 -4.61203 0
-342.299 -4.61127 0
-340.737 -4.61424 0
-339.176 -4.61274 0
-337.616 -4.61297 0
-336.054 -4.61285 0
-334.488 -4.60905 0
-332.922 -4.60198 0
-331.355 -4.60434 0
-329.795 -4.60519 0
-328.23 -4.6071 0
-326.666 -4.60745 0
-325.102 -4.61416 0
-323.536 -4.61481 0
-321.975 -4.61707 0
-320.411 -4.61095 0
-318.85 -4.61307 0
-317.291 -4.61194 0
-315.722 -4.61643 0
-314.158 -4.60957 0
-312.591 -4.61408 0
-311.03 -4.61352 0
-309.468 -4.61576 0
-307.905 -4.61583 0
-306.344 -4.61114 0
-304.782 -4.60782 0
-303.214 -4.6102 0
-301.654 -4.60924 0
-300.09 -4.61058 0
-298.526 -4.60905 0
-296.964 -4.61434 0
-295.402 -4.61104 0
-293.836 -4.61035 0
-292.275 -4.61425 0
-290.702 -4.60719 0
-289.145 -4.60795 0
-287.58 -4.60797 0
-286.018 -4.60678 0
-284.453 -4.60585 0
-282.891 -4.60541 0
-281.331 -4.61073 0
-279.769 -4.61074 0
-278.204 -4.61155 0
-276.641 -4.60822 0
-275.078 -4.61547 0
-273.518 -4.6165 0
-271.95 -4.61224 0
-270.387 -4.61581 0
-268.818 -4.62145 0
-267.261 -4.61328 0
-265.697 -4.61834 0
-264.132 -4.61686 0
-262.573 -4.61585 0
-261.01 -4.61207 0
-259.45 -4.61479 0
-257.884 -4.60906 0
-256.319 -4.60722 0
-254.756 -4.61209 0
-253.19 -4.61243 0
-251.628 -4.60857 0
-250.06 -4.60941 0
-248.496 -4.60926 0
-246.936 -4.61431 0
-245.371 -4.61608 0
-243.806 -4.61359 0
-242.244 -4.61778 0
-240.683 -4.61701 0
-239.12 -4.61882 0
-237.554 -4.61906 0
-235.989 -4.62002 0
-234.427 -4.6142 0
-232.862 -4.61465 0
-231.3 -4.61523 0
-229.735 -4.61422 0
-228.172 -4.61046 0
-226.609 -4.61427 0
-225.045 -4.61474 0
-223.485 -4.61525 0
-221.921 -4.61694 0
-220.358 -4.61517 0
-218.796 -4.61368 0
-217.236 -4.61406 0
-215.669 -4.61422 0
-214.106 -4.61539 0
-212.541 -4.61511 0
-210.984 -4.61515 0
-209.42 -4.61414 0
-207.855 -4.61106 0
-206.295 -4.61092 0
-204.731 -4.6115 0
-203.165 -4.61732 0
-201.605 -4.61925 0
-200.042 -4.61649 0
-198.475 -4.61656 0
-196.913 -4.61495 0
-195.35 -4.6139 0
-193.788 -4.61751 0
-192.223 -4.61815 0
-190.66 -4.61898 0
-189.098 -4.61689 0
-187.535 -4.61979 0
-185.975 -4.61409 0
-184.411 -4.61533 0
-182.844 -4.62002 0
-181.283 -4.61552 0
-179.72 -4.61843 0
-178.154 -4.6169 0
-176.595 -4.6153 0
-175.032 -4.61878 0
-173.472 -4.61509 0
-171.911 -4.61481 0
-170.347 -4.6176 0
-168.782 -4.62175 0
-167.217 -4.61989 0
-165.652 -4.62168 0
-164.092 -4.61713 0
-162.527 -4.61934 0
-160.968 -4.61813 0
-159.402 -4.61689 0
-157.842 -4.61407 0
-156.276 -4.61328 0
-154.712 -4.61127 0
-153.151 -4.61275 0
-151.588 -4.61434 0
-150.028 -4.61697 0
-148.465 -4.61586 0
-146.901 -4.61589 0
-145.341 -4.61811 0
-143.777 -4.61566 0
-142.213 -4.61302 0
-140.65 -4.61198 0
-139.089 -4.61194 0
-137.524 -4.61247 0
-135.965 -4.60797 0
-134.402 -4.61127 0
-132.839 -4.60706 0
-131.274 -4.6078 0
-129.709 -4.61031 0
-128.148 -4.60758 0
-126.588 -4.60597 0
-125.022 -4.60915 0
-123.461 -4.61099 0
-121.896 -4.61257 0
-120.331 -4.61251 0
-118.769 -4.61355 0
-117.205 -4.60943 0
-115.643 -4.6104 0
-114.083 -4.61519 0
-112.517 -4.61896 0
-110.954 -4.61468 0
-109.394 -4.61575 0
-107.831 -4.60935 0
-106.268 -4.60827 0
-104.703 -4.60971 0
-103.141 -4.61379 0
-101.573 -4.60863 0
-100.011 -4.61103 0
-98.4463 -4.61309 0
-96.8834 -4.6145 0
-95.3235 -4.61466 0
-93.7603 -4.61529 0
-92.1998 -4.61549 0
-90.6341 -4.61272 0
-89.0712 -4.61033 0
-87.5065 -4.61025 0
-85.9478 -4.61378 0
-84.3823 -4.61218 0
-82.8223 -4.61835 0
-81.2633 -4.61262 0
-79.702 -4.60988 0
-78.1377 -4.61437 0
-76.5704 -4.61826 0
-75.0085 -4.61716 0
-73.445 -4.61544 0
-71.8831 -4.61743 0
-70.3231 -4.60978 0
-68.759 -4.61191 0
-67.1969 -4.61031 0
-65.6357 -4.61508 0
-64.0697 -4.61317 0
-62.5088 -4.61823 0
-60.9447 -4.61804 0
-59.3777 -4.61761 0
-57.818 -4.61613 0
-56.2587 -4.60961 0
-54.6978 -4.60965 0
-53.1317 -4.61099 0
-51.5681 -4.61486 0
-50.006 -4.61417 0
-48.4382 -4.61412 0
-46.88 -4.61579 0
-45.3212 -4.61291 0
-43.7588 -4.61306 0
-42.1957 -4.61175 0
-40.6292 -4.61624 0
-39.0695 -4.6127 0
-37.5049 -4.61002 0
-35.9433 -4.60946 0
-34.3798 -4.61143 0
-32.8192 -4.61135 0
-31.2506 -4.60676 0
-29.6887 -4.59953 0
-28.1268 -4.6102 0
-26.5637 -4.61228 0
-24.9981 -4.61306 0
-23.4359 -4.61314 0
-21.8787 -4.61112 0
-20.3139 -4.60806 0
-18.7527 -4.60824 0
-17.1962 -4.60845 0
-15.6251 -4.61474 0
-14.0632 -4.61279 0
-12.4997 -4.61227 0
-10.9345 -4.61314 0
-9.37886 -4.61089 0
-7.8184 -4.61354 0
-6.25661 -4.61478 0
-4.68894 -4.60888 0
-3.1221 -4.61097 0
-1.55857 -4.61171 0
0 -4.61747 0
-1046.93 79.6164 0
-1047.34 70.7969 0
-1047.75 62.1294 0
-1048.13 53.6805 0
-1048.46 45.49 0
-1048.75 37.6387 0
-1048.99 30.2144 0
-1049.19 23.2759 0
-1049.35 16.8543 0
-1049.46 10.9694 0
-1049.5 5.63896 0
-1049.47 0.880478 0
-1049.4 -3.31548 0
-1049.39 -7.07703 0
-1049.4 -10.5744 0
-1049.38 -13.8386 0
-1049.27 -16.7676 0
-1049.14 -19.3127 0
-1048.98 -21.4788 0
-1048.8 -23.275 0
-1048.59 -24.7155 0
-1048.35 -25.8213 0
-1048.07 -26.6188 0
-1047.74 -27.1395 0
-1047.37 -27.4136 0
-1046.93 -27.4698 0
-1046.45 -27.334 0
-1045.9 -27.0296 0
-1045.29 -26.5783 0
-1044.62 -25.9975 0
-1043.9 -25.3061 0
-1043.11 -24.5195 0
-1042.27 -23.6518 0
-1041.37 -22.7157 0
-1040.42 -21.7238 0
-1039.42 -20.6875 0
-1038.36 -19.6163 0
-1037.26 -18.5206 0
-1036.12 -17.4068 0
-1034.93 -16.2848 0
-1033.69 -15.1611 0
-1032.42 -14.0405 0
-1031.12 -12.9304 0
-1029.77 -11.8354 0
-1028.4 -10.7597 0
-1026.99 -9.70759 0
-1025.55 -8.68339 0
-1024.09 -7.68881 0
-1022.6 -6.72683 0
-1021.08 -5.8002 0
-1019.55 -4.91025 0
-1017.99 -4.05991 0
-1016.42 -3.24963 0
-1014.83 -2.47918 0
-1013.22 -1.75089 0
-1011.6 -1.06589 0
-1009.96 -0.423237 0
-1008.32 0.176356 0
-1006.66 0.732578 0
-1004.99 1.245 0
-1003.32 1.71725 0
-1001.64 2.14698 0
-999.949 2.53454 0
-998.256 2.88272 0
-996.56 3.19033 0
-994.86 3.4591 0
-993.157 3.68886 0
-991.453 3.88407 0
-989.749 4.04261 0
-988.043 4.16635 0
-986.338 4.25826 0
-984.635 4.31689 0
-982.933 4.34612 0
-981.233 4.34569 0
-979.537 4.3183 0
-977.843 4.26477 0
-976.152 4.18779 0
-974.465 4.08529 0
-972.783 3.96123 0
-971.104 3.81759 0
-969.431 3.65493 0
-967.762 3.47442 0
-966.098 3.27969 0
-964.441 3.06876 0
-962.787 2.84457 0
-961.14 2.60845 0
-959.498 2.3616 0
-957.862 2.10654 0
-956.233 1.84295 0
-954.608 1.57246 0
-952.989 1.2973 0
-951.376 1.01589 0
-949.769 0.734335 0
-948.166 0.449305 0
-946.569 0.162983 0
-944.977 -0.122213 0
-943.391 -0.40661 0
-941.81 -0.689825 0
-940.233 -0.970033 0
-938.661 -1.24588 0
-937.094 -1.51719 0
-935.531 -1.78448 0
-933.971 -2.04587 0
-932.416 -2.29935 0
-930.864 -2.54608 0
-929.316 -2.78426 0
-927.772 -3.01582 0
-926.23 -3.23981 0
-924.691 -3.45175 0
-923.155 -3.65593 0
-921.62 -3.85173 0
-920.087 -4.03689 0
-918.557 -4.21311 0
-917.029 -4.37647 0
-915.501 -4.53195 0
-913.976 -4.67653 0
-912.45 -4.81034 0
-910.927 -4.93464 0
-909.404 -5.04761 0
-907.881 -5.15083 0
-906.36 -5.24281 0
-904.837 -5.32656 0
-903.316 -5.39999 0
-901.794 -5.46302 0
-900.271 -5.51717 0
-898.75 -5.56026 0
-897.226 -5.59498 0
-895.702 -5.62159 0
-894.178 -5.63858 0
-892.654 -5.64786 0
-891.128 -5.64985 0
-889.601 -5.64439 0
-888.073 -5.63116 0
-886.543 -5.60828 0
-885.013 -5.58104 0
-883.482 -5.54611 0
-881.95 -5.50758 0
-880.416 -5.46249 0
-878.88 -5.41182 0
-877.343 -5.35673 0
-875.804 -5.29673 0
-874.264 -5.23325 0
-872.723 -5.16423 0
-871.178 -5.09147 0
-869.635 -5.01753 0
-868.089 -4.93953 0
-866.542 -4.85762 0
-864.993 -4.77517 0
-863.442 -4.69107 0
-861.89 -4.60539 0
-860.338 -4.51744 0
-858.784 -4.42891 0
-857.228 -4.33984 0
-855.671 -4.24995 0
-854.111 -4.16155 0
-852.551 -4.07169 0
-850.99 -3.98414 0
-849.427 -3.89687 0
-847.864 -3.8091 0
-846.301 -3.72315 0
-844.736 -3.63771 0
-843.169 -3.55251 0
-841.6 -3.46906 0
-840.032 -3.38984 0
-838.463 -3.31237 0
-836.891 -3.2362 0
-835.32 -3.16045 0
-833.748 -3.08847 0
-832.176 -3.01746 0
-830.602 -2.95033 0
-829.029 -2.88646 0
-827.455 -2.82402 0
-825.881 -2.76451 0
-824.307 -2.70848 0
-822.731 -2.65323 0
-821.154 -2.6022 0
-819.578 -2.55359 0
-818.001 -2.50916 0
-816.423 -2.46648 0
-814.845 -2.42694 0
-813.268 -2.39021 0
-811.69 -2.35817 0
-810.113 -2.32625 0
-808.535 -2.29789 0
-806.957 -2.27185 0
-805.38 -2.25116 0
-803.803 -2.23215 0
-802.225 -2.21442 0
-800.647 -2.20218 0
-799.073 -2.18823 0
-797.496 -2.17932 0
-795.918 -2.1723 0
-794.341 -2.16634 0
-792.767 -2.16598 0
-791.19 -2.16772 0
-789.615 -2.1728 0
-788.04 -2.17804 0
-786.463 -2.1866 0
-784.887 -2.19572 0
-783.314 -2.20732 0
-781.738 -2.21793 0
-780.165 -2.23153 0
-778.592 -2.24978 0
-777.021 -2.26673 0
-775.449 -2.28347 0
-773.878 -2.30407 0
-772.307 -2.32664 0
-770.735 -2.34974 0
-769.166 -2.37139 0
-767.596 -2.39511 0
-766.026 -2.41938 0
-764.457 -2.44477 0
-762.888 -2.46996 0
-761.318 -2.49655 0
-759.75 -2.52489 0
-758.183 -2.5556 0
-756.616 -2.58247 0
-755.05 -2.6125 0
-753.483 -2.64076 0
-751.916 -2.66895 0
-750.351 -2.69771 0
-748.785 -2.72633 0
-747.221 -2.75673 0
-745.656 -2.78442 0
-744.093 -2.81262 0
-742.528 -2.83947 0
-740.962 -2.86978 0
-739.4 -2.89825 0
-737.837 -2.92647 0
-736.273 -2.9508 0
-734.711 -2.97643 0
-733.149 -3.00081 0
-731.587 -3.02542 0
-730.026 -3.05072 0
-728.463 -3.07239 0
-726.902 -3.09322 0
-725.343 -3.11593 0
-723.782 -3.13837 0
-722.221 -3.16152 0
-720.659 -3.17762 0
-719.098 -3.19577 0
-717.539 -3.21192 0
-715.98 -3.22917 0
-714.417 -3.24712 0
-712.858 -3.25927 0
-711.298 -3.27291 0
-709.738 -3.28422 0
-708.178 -3.29496 0
-706.617 -3.3083 0
-705.056 -3.32049 0
-703.499 -3.33135 0
-701.938 -3.34023 0
-700.378 -3.34633 0
-698.816 -3.35362 0
-697.258 -3.35798 0
-695.697 -3.36443 0
-694.136 -3.36969 0
-692.576 -3.37456 0
-691.017 -3.37614 0
-689.456 -3.37737 0
-687.896 -3.37778 0
-686.337 -3.37878 0
-684.776 -3.3785 0
-683.216 -3.37517 0
-681.654 -3.37756 0
-680.093 -3.37563 0
-678.535 -3.37309 0
-676.973 -3.36959 0
-675.411 -3.36453 0
-673.849 -3.3607 0
-672.286 -3.35631 0
-670.726 -3.35122 0
-669.165 -3.34571 0
-667.606 -3.34138 0
-666.043 -3.33554 0
-664.478 -3.32567 0
-662.916 -3.3186 0
-661.355 -3.30935 0
-659.792 -3.30063 0
-658.228 -3.29326 0
-656.665 -3.28552 0
-655.103 -3.27594 0
-653.54 -3.26751 0
-651.98 -3.25948 0
-650.414 -3.25061 0
-648.852 -3.24357 0
-647.289 -3.23392 0
-645.725 -3.22061 0
-644.162 -3.21195 0
-642.598 -3.20271 0
-641.033 -3.19476 0
-639.468 -3.18403 0
-637.907 -3.17394 0
-636.343 -3.16543 0
-634.777 -3.15863 0
-633.212 -3.1508 0
-631.648 -3.13881 0
-630.083 -3.12943 0
-628.518 -3.1198 0
-626.956 -3.11119 0
-625.391 -3.10254 0
-623.826 -3.09649 0
-622.261 -3.08882 0
-620.695 -3.07948 0
-619.132 -3.07131 0
-617.569 -3.06276 0
-616.005 -3.05355 0
-614.438 -3.04782 0
-612.871 -3.04198 0
-611.308 -3.03471 0
-609.746 -3.02652 0
-608.18 -3.0201 0
-606.613 -3.01636 0
-605.048 -3.00936 0
-603.482 -3.00275 0
-601.918 -2.99788 0
-600.354 -2.99692 0
-598.788 -2.99081 0
-597.222 -2.98316 0
-595.654 -2.98032 0
-594.089 -2.97503 0
-592.521 -2.972 0
-590.957 -2.96955 0
-589.391 -2.96396 0
-587.825 -2.96553 0
-586.263 -2.96411 0
-584.695 -2.95922 0
-583.129 -2.95775 0
-581.564 -2.95868 0
-579.999 -2.95526 0
-578.435 -2.95202 0
-576.871 -2.94879 0
-575.306 -2.94702 0
-573.741 -2.94552 0
-572.177 -2.94779 0
-570.611 -2.94767 0
-569.044 -2.94725 0
-567.48 -2.94928 0
-565.914 -2.94822 0
-564.351 -2.95055 0
-562.784 -2.95081 0
-561.219 -2.95387 0
-559.654 -2.95484 0
-558.09 -2.95235 0
-556.525 -2.95333 0
-554.961 -2.95588 0
-553.396 -2.96032 0
-551.831 -2.9633 0
-550.263 -2.96643 0
-548.698 -2.96735 0
-547.132 -2.9691 0
-545.569 -2.97053 0
-544.004 -2.97105 0
-542.44 -2.97752 0
-540.875 -2.98018 0
-539.31 -2.98562 0
-537.747 -2.99114 0
-536.183 -2.99063 0
-534.616 -2.99605 0
-533.053 -2.996 0
-531.488 -2.99718 0
-529.925 -3.00413 0
-528.362 -3.00465 0
-526.794 -3.00842 0
-525.229 -3.0152 0
-523.664 -3.01849 0
-522.101 -3.01762 0
-520.538 -3.02246 0
-518.974 -3.02925 0
-517.41 -3.03355 0
-515.847 -3.03226 0
-514.285 -3.03601 0
-512.722 -3.03927 0
-511.158 -3.04197 0
-509.596 -3.04533 0
-508.03 -3.04734 0
-506.466 -3.04664 0
-504.902 -3.05226 0
-503.341 -3.05494 0
-501.777 -3.05659 0
-500.214 -3.05979 0
-498.651 -3.06222 0
-497.085 -3.06272 0
-495.52 -3.06693 0
-493.958 -3.07167 0
-492.395 -3.07237 0
-490.832 -3.07632 0
-489.266 -3.08044 0
-487.703 -3.08136 0
-486.139 -3.08154 0
-484.577 -3.08333 0
-483.014 -3.08668 0
-481.451 -3.08785 0
-479.89 -3.08682 0
-478.329 -3.08771 0
-476.767 -3.09273 0
-475.204 -3.09444 0
-473.637 -3.09472 0
-472.072 -3.09511 0
-470.51 -3.09853 0
-468.946 -3.09804 0
-467.383 -3.10253 0
-465.82 -3.10094 0
-464.257 -3.09959 0
-462.693 -3.10117 0
-461.127 -3.10577 0
-459.566 -3.09934 0
-458.002 -3.10145 0
-456.442 -3.10161 0
-454.879 -3.10242 0
-453.312 -3.10352 0
-451.75 -3.1037 0
-450.187 -3.10226 0
-448.624 -3.10399 0
-447.061 -3.10112 0
-445.495 -3.09973 0
-443.93 -3.09944 0
-442.368 -3.10135 0
-440.804 -3.10019 0
-439.242 -3.10111 0
-437.681 -3.10385 0
-436.12 -3.10627 0
-434.552 -3.10401 0
-432.988 -3.10309 0
-431.424 -3.09834 0
-429.862 -3.09923 0
-428.3 -3.09958 0
-426.738 -3.09837 0
-425.175 -3.10023 0
-423.61 -3.09658 0
-422.047 -3.0973 0
-420.482 -3.09279 0
-418.919 -3.09045 0
-417.356 -3.09121 0
-415.79 -3.08961 0
-414.227 -3.09175 0
-412.664 -3.09147 0
-411.1 -3.08935 0
-409.534 -3.0875 0
-407.973 -3.08435 0
-406.409 -3.08707 0
-404.844 -3.08449 0
-403.281 -3.08702 0
-401.715 -3.08806 0
-400.151 -3.0875 0
-398.587 -3.08507 0
-397.023 -3.08528 0
-395.459 -3.08071 0
-393.897 -3.08378 0
-392.333 -3.08208 0
-390.768 -3.08095 0
-389.204 -3.07757 0
-387.643 -3.07922 0
-386.08 -3.07542 0
-384.517 -3.08037 0
-382.956 -3.07557 0
-381.392 -3.0742 0
-379.828 -3.0733 0
-378.263 -3.07151 0
-376.698 -3.07234 0
-375.133 -3.07452 0
-373.569 -3.07204 0
-372.007 -3.07211 0
-370.445 -3.07416 0
-368.879 -3.07404 0
-367.313 -3.06816 0
-365.754 -3.07112 0
-364.19 -3.07236 0
-362.626 -3.06704 0
-361.064 -3.06675 0
-359.499 -3.06752 0
-357.937 -3.06913 0
-356.374 -3.07069 0
-354.81 -3.07216 0
-353.245 -3.0723 0
-351.682 -3.07053 0
-350.12 -3.06736 0
-348.556 -3.06798 0
-346.993 -3.07238 0
-345.426 -3.07242 0
-343.863 -3.07593 0
-342.299 -3.07462 0
-340.739 -3.07197 0
-339.176 -3.07449 0
-337.615 -3.07252 0
-336.051 -3.07016 0
-334.483 -3.06761 0
-332.92 -3.06382 0
-331.359 -3.06505 0
-329.794 -3.06714 0
-328.235 -3.06638 0
-326.667 -3.06658 0
-325.104 -3.07488 0
-323.541 -3.07427 0
-321.975 -3.07167 0
-320.412 -3.07213 0
-318.85 -3.07182 0
-317.287 -3.07275 0
-315.722 -3.07109 0
-314.16 -3.06862 0
-312.595 -3.07175 0
-311.031 -3.07151 0
-309.469 -3.07043 0
-307.904 -3.07472 0
-306.342 -3.0731 0
-304.779 -3.06759 0
-303.217 -3.06791 0
-301.652 -3.07078 0
-300.091 -3.06631 0
-298.53 -3.07299 0
-296.964 -3.07529 0
-295.401 -3.072 0
-293.836 -3.07228 0
-292.269 -3.07021 0
-290.708 -3.0671 0
-289.143 -3.06926 0
-287.583 -3.06839 0
-286.019 -3.06911 0
-284.456 -3.06936 0
-282.894 -3.0694 0
-281.33 -3.06996 0
-279.769 -3.07047 0
-278.204 -3.0701 0
-276.64 -3.07051 0
-275.082 -3.07474 0
-273.515 -3.07454 0
-271.951 -3.07482 0
-270.39 -3.07485 0
-268.824 -3.08072 0
-267.258 -3.07905 0
-265.698 -3.07879 0
-264.136 -3.07813 0
-262.573 -3.07557 0
-261.011 -3.07496 0
-259.447 -3.0751 0
-257.883 -3.07037 0
-256.318 -3.07074 0
-254.755 -3.07148 0
-253.189 -3.07176 0
-251.626 -3.06902 0
-250.06 -3.06849 0
-248.499 -3.07467 0
-246.936 -3.07562 0
-245.374 -3.07402 0
-243.807 -3.07437 0
-242.246 -3.07721 0
-240.684 -3.07851 0
-239.121 -3.07629 0
-237.554 -3.0786 0
-235.989 -3.07701 0
-234.426 -3.07532 0
-232.864 -3.07533 0
-231.301 -3.07576 0
-229.737 -3.07326 0
-228.173 -3.07507 0
-226.608 -3.07464 0
-225.046 -3.07646 0
-223.484 -3.07631 0
-221.92 -3.07559 0
-220.359 -3.07662 0
-218.794 -3.07724 0
-217.233 -3.07627 0
-215.669 -3.07464 0
-214.106 -3.07454 0
-212.542 -3.07507 0
-210.981 -3.07755 0
-209.419 -3.07344 0
-207.855 -3.07544 0
-206.294 -3.07323 0
-204.732 -3.07399 0
-203.17 -3.07565 0
-201.603 -3.07769 0
-200.038 -3.07682 0
-198.476 -3.07711 0
-196.912 -3.07766 0
-195.349 -3.07707 0
-193.786 -3.07712 0
-192.223 -3.0789 0
-190.661 -3.07832 0
-189.1 -3.07714 0
-187.536 -3.07733 0
-185.971 -3.07703 0
-184.409 -3.0767 0
-182.845 -3.0773 0
-181.282 -3.07877 0
-179.72 -3.07875 0
-178.156 -3.07654 0
-176.594 -3.07812 0
-175.032 -3.07828 0
-173.47 -3.07785 0
-171.908 -3.07653 0
-170.347 -3.07888 0
-168.784 -3.07954 0
-167.217 -3.08078 0
-165.651 -3.0806 0
-164.09 -3.07743 0
-162.526 -3.07897 0
-160.963 -3.08019 0
-159.402 -3.0792 0
-157.837 -3.07659 0
-156.275 -3.07377 0
-154.713 -3.07576 0
-153.152 -3.0769 0
-151.591 -3.07524 0
-150.029 -3.07783 0
-148.465 -3.07877 0
-146.903 -3.07613 0
-145.339 -3.07685 0
-143.777 -3.07653 0
-142.215 -3.0726 0
-140.65 -3.07388 0
-139.088 -3.07135 0
-137.525 -3.06998 0
-135.962 -3.07148 0
-134.4 -3.07146 0
-132.833 -3.06969 0
-131.27 -3.06897 0
-129.708 -3.06999 0
-128.146 -3.06979 0
-126.585 -3.07016 0
-125.022 -3.06807 0
-123.455 -3.06965 0
-121.896 -3.07432 0
-120.332 -3.07428 0
-118.767 -3.07263 0
-117.206 -3.07276 0
-115.642 -3.07291 0
-114.082 -3.07652 0
-112.518 -3.07764 0
-110.954 -3.07644 0
-109.389 -3.07331 0
-107.828 -3.07038 0
-106.266 -3.07049 0
-104.705 -3.07053 0
-103.139 -3.07288 0
-101.574 -3.07348 0
-100.013 -3.07288 0
-98.4486 -3.07176 0
-96.8854 -3.0735 0
-95.323 -3.07584 0
-93.7597 -3.07642 0
-92.1959 -3.07541 0
-90.634 -3.07666 0
-89.0701 -3.07533 0
-87.506 -3.07121 0
-85.9461 -3.07215 0
-84.385 -3.07244 0
-82.8253 -3.07722 0
-81.2628 -3.07347 0
-79.6978 -3.07444 0
-78.1357 -3.07637 0
-76.5727 -3.07454 0
-75.0077 -3.07834 0
-73.4477 -3.07783 0
-71.8816 -3.07868 0
-70.3173 -3.07399 0
-68.7577 -3.06976 0
-67.1961 -3.07336 0
-65.6333 -3.07308 0
-64.072 -3.07475 0
-62.5085 -3.07768 0
-60.9443 -3.0786 0
-59.3802 -3.07694 0
-57.819 -3.07562 0
-56.2555 -3.07421 0
-54.6964 -3.07132 0
-53.1344 -3.06969 0
-51.5697 -3.07433 0
-50.0087 -3.07501 0
-48.4459 -3.07292 0
-46.8833 -3.07323 0
-45.3193 -3.07633 0
-43.7558 -3.07053 0
-42.1931 -3.07093 0
-40.6344 -3.07643 0
-39.0687 -3.07265 0
-37.5069 -3.07421 0
-35.9441 -3.07212 0
-34.3829 -3.07233 0
-32.8172 -3.07091 0
-31.2524 -3.06755 0
-29.6906 -3.06411 0
-28.1297 -3.07007 0
-26.5671 -3.07128 0
-25.0021 -3.07281 0
-23.4399 -3.07648 0
-21.877 -3.07184 0
-20.3132 -3.06898 0
-18.7512 -3.07111 0
-17.19 -3.07406 0
-15.6249 -3.07496 0
-14.0629 -3.07449 0
-12.5011 -3.07331 0
-10.9357 -3.0734 0
-9.37668 -3.0736 0
-7.81464 -3.07505 0
-6.2524 -3.07218 0
-4.68877 -3.07095 0
-3.12733 -3.07237 0
-1.56515 -3.07306 0
0 -3.07611 0
-1055.94 80.5412 0
-1055.95 71.4689 0
-1056.13 62.7841 0
-1056.25 54.3416 0
-1056.28 46.1724 0
-1056.22 38.3337 0
-1056.06 30.9022 0
-1055.82 23.9438 0
-1055.51 17.5042 0
-1055.13 11.6093 0
-1054.68 6.27584 0
-1054.19 1.49945 0
-1053.72 -2.77497 0
-1053.31 -6.65837 0
-1052.94 -10.2039 0
-1052.58 -13.428 0
-1052.16 -16.328 0
-1051.68 -18.8715 0
-1051.17 -21.0397 0
-1050.63 -22.836 0
-1050.08 -24.2732 0
-1049.51 -25.3701 0
-1048.93 -26.1522 0
-1048.33 -26.6493 0
-1047.71 -26.8924 0
-1047.07 -26.9111 0
-1046.39 -26.7328 0
-1045.67 -26.3828 0
-1044.92 -25.8832 0
-1044.12 -25.2528 0
-1043.29 -24.5113 0
-1042.41 -23.6742 0
-1041.48 -22.7572 0
-1040.52 -21.7717 0
-1039.51 -20.7323 0
-1038.47 -19.6492 0
-1037.38 -18.534 0
-1036.25 -17.3951 0
-1035.09 -16.24 0
-1033.89 -15.0791 0
-1032.66 -13.9176 0
-1031.39 -12.7619 0
-1030.09 -11.6186 0
-1028.76 -10.4911 0
-1027.4 -9.38594 0
-1026.01 -8.30573 0
-1024.6 -7.25547 0
-1023.17 -6.23602 0
-1021.71 -5.25158 0
-1020.23 -4.30435 0
-1018.73 -3.39482 0
-1017.21 -2.52663 0
-1015.67 -1.69877 0
-1014.12 -0.913754 0
-1012.55 -0.171946 0
-1010.97 0.526044 0
-1009.37 1.1795 0
-1007.77 1.78944 0
-1006.15 2.35471 0
-1004.52 2.8763 0
-1002.89 3.3549 0
-1001.25 3.79062 0
-999.599 4.18378 0
-997.944 4.53588 0
-996.285 4.84632 0
-994.621 5.11799 0
-992.954 5.35113 0
-991.284 5.54676 0
-989.613 5.70599 0
-987.94 5.83 0
-986.267 5.92063 0
-984.591 5.97872 0
-982.918 6.00603 0
-981.245 6.00479 0
-979.573 5.97446 0
-977.903 5.91898 0
-976.236 5.83744 0
-974.57 5.73278 0
-972.908 5.60511 0
-971.249 5.45713 0
-969.592 5.29003 0
-967.94 5.10587 0
-966.291 4.90562 0
-964.646 4.69047 0
-963.006 4.46135 0
-961.37 4.22044 0
-959.736 3.96872 0
-958.108 3.708 0
-956.486 3.44011 0
-954.868 3.16486 0
-953.254 2.88486 0
-951.644 2.59871 0
-950.039 2.31113 0
-948.438 2.02251 0
-946.842 1.73072 0
-945.25 1.44095 0
-943.661 1.15173 0
-942.078 0.864685 0
-940.499 0.580669 0
-938.924 0.300893 0
-937.351 0.0252392 0
-935.783 -0.244782 0