<?xml version="1.0"?>
<VTKFile type="StructuredGrid"  version="0.1" byte_order="LittleEndian" compressor="vtkZLibDataCompressor">
  <StructuredGrid WholeExtent="0 700 0 30 0 0">
    <Piece Extent="0 700 0 30 0 0">
      <PointData Vectors="Velocity">
        <DataArray type="Float32" Name="Velocity" NumberOfComponents="3" format="ascii">
-63.116 -0.476415 0
-63.0198 -0.483028 0
-62.9287 -0.476394 0
-62.8431 -0.482495 0
-62.7504 -0.476019 0
-62.6689 -0.480577 0
-62.582 -0.476908 0
-62.4903 -0.477962 0
-62.3934 -0.478602 0
-62.2979 -0.46776 0
-62.2067 -0.470148 0
-62.1146 -0.469693 0
-62.0237 -0.479493 0
-61.9404 -0.47004 0
-61.8481 -0.47818 0
-61.7532 -0.482513 0
-61.6662 -0.478361 0
-61.5792 -0.482906 0
-61.4927 -0.478051 0
-61.4063 -0.472703 0
-61.3131 -0.478763 0
-61.2255 -0.477965 0
-61.1336 -0.480238 0
-61.043 -0.480586 0
-60.9515 -0.487573 0
-60.865 -0.482316 0
-60.7777 -0.479637 0
-60.6878 -0.47918 0
-60.5966 -0.483047 0
-60.5109 -0.477927 0
-60.4271 -0.479578 0
-60.3308 -0.485633 0
-60.2449 -0.480533 0
-60.1535 -0.477133 0
-60.0634 -0.467199 0
-59.9778 -0.470379 0
-59.8881 -0.464956 0
-59.7825 -0.477014 0
-59.7008 -0.479232 0
-59.6089 -0.483971 0
-59.5212 -0.480046 0
-59.4352 -0.487719 0
-59.3443 -0.498244 0
-59.2563 -0.481713 0
-59.1628 -0.480787 0
-59.0771 -0.4823 0
-58.9839 -0.48482 0
-58.9027 -0.486268 0
-58.8038 -0.491555 0
-58.7065 -0.485595 0
-58.6185 -0.489499 0
-58.5368 -0.502656 0
-58.4475 -0.49426 0
-58.3623 -0.495435 0
-58.2658 -0.492565 0
-58.1696 -0.484729 0
-58.0779 -0.494531 0
-57.9919 -0.496652 0
-57.9037 -0.497528 0
-57.8026 -0.504121 0
-57.7137 -0.505193 0
-57.6231 -0.50623 0
-57.5425 -0.513928 0
-57.4605 -0.506763 0
-57.382 -0.523154 0
-57.2811 -0.511449 0
-57.1898 -0.51335 0
-57.1028 -0.519325 0
-57.0054 -0.516484 0
-56.9114 -0.519281 0
-56.8197 -0.522653 0
-56.7384 -0.522357 0
-56.6535 -0.522545 0
-56.5715 -0.517877 0
-56.4704 -0.517953 0
-56.3871 -0.515437 0
-56.3002 -0.520153 0
-56.2064 -0.51647 0
-56.1221 -0.520344 0
-56.0266 -0.521889 0
-55.9333 -0.530742 0
-55.8622 -0.522608 0
-55.7599 -0.523418 0
-55.6713 -0.53578 0
-55.5756 -0.538472 0
-55.4868 -0.536124 0
-55.3978 -0.533525 0
-55.3099 -0.534681 0
-55.2142 -0.536935 0
-55.1184 -0.537576 0
-55.0325 -0.544774 0
-54.9407 -0.541695 0
-54.8524 -0.531044 0
-54.7539 -0.548173 0
-54.671 -0.52733 0
-54.5865 -0.545668 0
-54.4942 -0.542652 0
-54.4085 -0.546171 0
-54.3222 -0.548556 0
-54.2414 -0.551904 0
-54.1577 -0.554532 0
-54.0639 -0.542134 0
-53.9721 -0.549441 0
-53.8812 -0.545968 0
-53.7846 -0.542986 0
-53.6909 -0.548939 0
-53.6097 -0.546795 0
-53.5262 -0.551117 0
-53.4249 -0.547132 0
-53.3304 -0.559165 0
-53.2388 -0.560635 0
-53.1486 -0.572323 0
-53.0641 -0.562359 0
-52.9816 -0.568196 0
-52.8846 -0.558139 0
-52.8029 -0.564631 0
-52.7067 -0.559166 0
-52.6212 -0.557772 0
-52.5257 -0.561733 0
-52.4361 -0.56191 0
-52.3426 -0.556595 0
-52.2631 -0.564746 0
-52.1652 -0.568888 0
-52.079 -0.570628 0
-51.9843 -0.570418 0
-51.8955 -0.578713 0
-51.8086 -0.569102 0
-51.7209 -0.558868 0
-51.6365 -0.564073 0
-51.5452 -0.578139 0
-51.4619 -0.576311 0
-51.3746 -0.588758 0
-51.2791 -0.584704 0
-51.1938 -0.589194 0
-51.1111 -0.58492 0
-51.0119 -0.586237 0
-50.9225 -0.571478 0
-50.8251 -0.577619 0
-50.7305 -0.575257 0
-50.6467 -0.578458 0
-50.5481 -0.566635 0
-50.4613 -0.577219 0
-50.3699 -0.578689 0
-50.2769 -0.579425 0
-50.1992 -0.596349 0
-50.1193 -0.577245 0
-50.0246 -0.581499 0
-49.9329 -0.596328 0
-49.8534 -0.584224 0
-49.7455 -0.583117 0
-49.6569 -0.578559 0
-49.5615 -0.597462 0
-49.4684 -0.592659 0
-49.3813 -0.59238 0
-49.2908 -0.589892 0
-49.2096 -0.593022 0
-49.1146 -0.577989 0
-49.027 -0.576244 0
-48.9283 -0.58226 0
-48.8347 -0.584137 0
-48.7464 -0.591802 0
-48.6552 -0.602993 0
-48.5679 -0.59959 0
-48.4779 -0.612921 0
-48.3883 -0.60079 0
-48.3041 -0.598795 0
-48.2183 -0.603004 0
-48.1218 -0.596773 0
-48.0293 -0.604054 0
-47.9369 -0.604021 0
-47.8498 -0.599471 0
-47.7508 -0.589153 0
-47.6671 -0.597862 0
-47.5841 -0.589305 0
-47.4918 -0.588441 0
-47.4067 -0.595754 0
-47.316 -0.601979 0
-47.2243 -0.610663 0
-47.127 -0.612447 0
-47.0292 -0.610356 0
-46.9438 -0.61137 0
-46.8534 -0.615395 0
-46.785 -0.612615 0
-46.6919 -0.594668 0
-46.5976 -0.600542 0
-46.5186 -0.626401 0
-46.4221 -0.612183 0
-46.3268 -0.611468 0
-46.2297 -0.613923 0
-46.1506 -0.606898 0
-46.0515 -0.606892 0
-45.963 -0.597928 0
-45.8704 -0.601332 0
-45.7766 -0.607314 0
-45.689 -0.612533 0
-45.6111 -0.622295 0
-45.5158 -0.607938 0
-45.4263 -0.608143 0
-45.338 -0.623118 0
-45.2564 -0.619409 0
-45.1694 -0.622543 0
-45.0702 -0.601026 0
-44.9742 -0.598487 0
-44.8742 -0.605879 0
-44.7949 -0.601858 0
-44.7015 -0.596487 0
-44.6077 -0.596939 0
-44.5169 -0.60664 0
-44.4327 -0.602758 0
-44.3432 -0.621652 0
-44.2488 -0.615874 0
-44.1598 -0.613181 0
-44.0712 -0.607895 0
-43.9839 -0.617571 0
-43.8879 -0.62088 0
-43.8142 -0.620774 0
-43.7298 -0.623415 0
-43.6344 -0.594976 0
-43.54 -0.617121 0
-43.4547 -0.609099 0
-43.3599 -0.616632 0
-43.2734 -0.605455 0
-43.1922 -0.612161 0
-43.0961 -0.607099 0
-43.0131 -0.61698 0
-42.9212 -0.621662 0
-42.8196 -0.618909 0
-42.7178 -0.625431 0
-42.6417 -0.630085 0
-42.5534 -0.627438 0
-42.4634 -0.619353 0
-42.3754 -0.613031 0
-42.2751 -0.611785 0
-42.1865 -0.616332 0
-42.0912 -0.609882 0
-42.0062 -0.625984 0
-41.9186 -0.627687 0
-41.8205 -0.633869 0
-41.7457 -0.639107 0
-41.6654 -0.621915 0
-41.567 -0.609096 0
-41.4778 -0.622798 0
-41.3973 -0.619642 0
-41.2983 -0.633444 0
-41.2186 -0.623154 0
-41.1187 -0.625373 0
-41.0087 -0.633972 0
-40.9344 -0.622141 0
-40.8475 -0.629873 0
-40.7593 -0.618846 0
-40.6635 -0.620755 0
-40.5652 -0.616556 0
-40.476 -0.613349 0
-40.392 -0.617609 0
-40.3046 -0.625726 0
-40.2126 -0.6334 0
-40.1251 -0.636792 0
-40.0419 -0.636731 0
-39.9308 -0.637971 0
-39.8473 -0.623069 0
-39.768 -0.635656 0
-39.6734 -0.626897 0
-39.5972 -0.632085 0
-39.5003 -0.62821 0
-39.4102 -0.620172 0
-39.3193 -0.626483 0
-39.2263 -0.625151 0
-39.1491 -0.616172 0
-39.0567 -0.618491 0
-38.96 -0.616251 0
-38.8651 -0.608859 0
-38.7669 -0.614235 0
-38.6789 -0.607564 0
-38.5861 -0.606813 0
-38.4906 -0.604488 0
-38.4037 -0.617711 0
-38.3088 -0.62818 0
-38.2188 -0.639444 0
-38.1312 -0.644242 0
-38.0518 -0.643657 0
-37.9633 -0.624307 0
-37.8642 -0.620138 0
-37.7727 -0.617581 0
-37.6793 -0.610892 0
-37.5826 -0.619825 0
-37.4988 -0.619392 0
-37.4167 -0.612578 0
-37.3341 -0.609051 0
-37.2409 -0.619291 0
-37.1452 -0.621431 0
-37.0515 -0.618631 0
-36.9572 -0.628102 0
-36.8687 -0.622968 0
-36.7776 -0.618572 0
-36.698 -0.622597 0
-36.5957 -0.611689 0
-36.5083 -0.603592 0
-36.4218 -0.611568 0
-36.3311 -0.60701 0
-36.2395 -0.605578 0
-36.1397 -0.608597 0
-36.0552 -0.612295 0
-35.9544 -0.613163 0
-35.8738 -0.611977 0
-35.7926 -0.618138 0
-35.7173 -0.62271 0
-35.6132 -0.605365 0
-35.5249 -0.602365 0
-35.4332 -0.60832 0
-35.3408 -0.60843 0
-35.2541 -0.612526 0
-35.1603 -0.601837 0
-35.0599 -0.615621 0
-34.9824 -0.626199 0
-34.8857 -0.613136 0
-34.8058 -0.613504 0
-34.7081 -0.613603 0
-34.617 -0.600085 0
-34.5308 -0.596063 0
-34.4391 -0.599293 0
-34.3494 -0.596675 0
-34.2477 -0.604358 0
-34.1569 -0.623234 0
-34.0811 -0.609054 0
-33.9935 -0.623647 0
-33.8985 -0.613094 0
-33.8143 -0.62179 0
-33.7187 -0.614654 0
-33.6382 -0.602311 0
-33.5465 -0.580865 0
-33.4539 -0.596186 0
-33.3622 -0.604773 0
-33.2712 -0.590144 0
-33.1841 -0.591908 0
-33.1012 -0.58828 0
-33.0057 -0.595683 0
-32.913 -0.588416 0
-32.8147 -0.596403 0
-32.7255 -0.59454 0
-32.6309 -0.59328 0
-32.5298 -0.596553 0
-32.4352 -0.587556 0
-32.3494 -0.598165 0
-32.2617 -0.596538 0
-32.1665 -0.602517 0
-32.0798 -0.605145 0
-31.9871 -0.608356 0
-31.9099 -0.596161 0
-31.8132 -0.602733 0
-31.7277 -0.603688 0
-31.6291 -0.585313 0
-31.5392 -0.596366 0
-31.4519 -0.608829 0
-31.3607 -0.597309 0
-31.268 -0.589983 0
-31.1832 -0.5935 0
-31.0854 -0.601938 0
-31.0016 -0.608836 0
-30.9044 -0.605611 0
-30.808 -0.606314 0
-30.7224 -0.596655 0
-30.64 -0.602832 0
-30.5423 -0.592059 0
-30.4661 -0.599755 0
-30.3638 -0.598038 0
-30.2734 -0.612294 0
-30.1772 -0.599223 0
-30.0826 -0.606171 0
-29.9905 -0.604508 0
-29.9128 -0.601147 0
-29.8124 -0.600479 0
-29.7176 -0.610761 0
-29.6308 -0.605455 0
-29.5493 -0.598995 0
-29.4621 -0.60996 0
-29.3588 -0.607116 0
-29.2624 -0.608293 0
-29.1719 -0.61563 0
-29.0967 -0.610661 0
-29.0013 -0.619963 0
-28.9086 -0.607473 0
-28.8165 -0.624821 0
-28.7099 -0.599086 0
-28.6169 -0.617559 0
-28.5459 -0.61771 0
-28.4569 -0.620354 0
-28.3658 -0.612694 0
-28.2754 -0.611156 0
-28.1884 -0.621141 0
-28.095 -0.607437 0
-28.0022 -0.612471 0
-27.9167 -0.612721 0
-27.8253 -0.615435 0
-27.7352 -0.62823 0
-27.6454 -0.618455 0
-27.5502 -0.636047 0
-27.4591 -0.629623 0
-27.3748 -0.628804 0
-27.2965 -0.63679 0
-27.2102 -0.63609 0
-27.112 -0.639686 0
-27.0232 -0.64218 0
-26.9243 -0.629151 0
-26.8502 -0.644262 0
-26.7566 -0.633834 0
-26.6562 -0.632065 0
-26.5566 -0.645624 0
-26.4641 -0.662273 0
-26.3739 -0.658105 0
-26.3042 -0.661535 0
-26.2089 -0.670954 0
-26.1264 -0.655797 0
-26.0263 -0.647102 0
-25.9399 -0.653418 0
-25.8504 -0.651475 0
-25.7546 -0.645223 0
-25.6531 -0.652774 0
-25.5627 -0.659042 0
-25.4756 -0.670073 0
-25.3965 -0.651391 0
-25.3043 -0.665845 0
-25.2288 -0.671247 0
-25.1324 -0.672178 0
-25.0375 -0.675272 0
-24.9527 -0.680735 0
-24.8622 -0.674624 0
-24.7637 -0.684292 0
-24.6746 -0.683062 0
-24.572 -0.683512 0
-24.496 -0.66801 0
-24.4117 -0.671779 0
-24.3146 -0.686126 0
-24.23 -0.677145 0
-24.116 -0.678369 0
-24.0342 -0.698776 0
-23.9427 -0.689049 0
-23.8606 -0.705706 0
-23.7682 -0.691038 0
-23.6858 -0.689018 0
-23.5991 -0.694431 0
-23.5204 -0.692464 0
-23.4228 -0.700289 0
-23.3356 -0.706004 0
-23.2377 -0.713548 0
-23.1474 -0.691249 0
-23.0571 -0.703333 0
-22.9716 -0.702024 0
-22.8848 -0.695104 0
-22.7804 -0.703881 0
-22.6915 -0.704545 0
-22.6115 -0.671103 0
-22.5174 -0.680521 0
-22.4192 -0.701018 0
-22.3261 -0.687385 0
-22.2463 -0.67852 0
-22.1538 -0.681235 0
-22.0703 -0.708437 0
-21.9727 -0.701199 0
-21.8864 -0.691497 0
-21.7893 -0.691049 0
-21.7148 -0.680775 0
-21.6212 -0.683946 0
-21.5338 -0.692626 0
-21.4432 -0.674265 0
-21.3429 -0.68033 0
-21.2576 -0.694797 0
-21.1715 -0.707105 0
-21.0799 -0.699721 0
-20.9917 -0.69773 0
-20.8971 -0.687836 0
-20.7903 -0.685187 0
-20.7164 -0.694062 0
-20.6178 -0.694596 0
-20.5347 -0.695888 0
-20.4459 -0.701886 0
-20.3671 -0.685977 0
-20.2659 -0.698876 0
-20.1703 -0.692353 0
-20.0854 -0.69701 0
-19.9816 -0.677836 0
-19.8914 -0.688574 0
-19.7997 -0.705709 0
-19.7144 -0.686559 0
-19.6541 -0.698414 0
-19.5517 -0.690522 0
-19.4461 -0.697798 0
-19.3521 -0.704185 0
-19.2777 -0.684449 0
-19.1854 -0.680356 0
-19.0835 -0.688189 0
-18.9902 -0.678403 0
-18.8894 -0.687232 0
-18.8034 -0.690864 0
-18.7064 -0.68093 0
-18.6207 -0.682894 0
-18.5386 -0.666728 0
-18.4604 -0.673232 0
-18.3681 -0.667096 0
-18.2817 -0.667011 0
-18.1856 -0.674166 0
-18.0978 -0.677051 0
-18.0092 -0.675742 0
-17.9183 -0.689161 0
-17.8127 -0.688781 0
-17.7369 -0.713398 0
-17.6456 -0.704976 0
-17.5553 -0.673962 0
-17.4783 -0.693528 0
-17.3977 -0.689198 0
-17.2944 -0.683968 0
-17.2162 -0.691442 0
-17.1168 -0.687239 0
-17.0162 -0.681289 0
-16.9314 -0.674384 0
-16.8447 -0.683906 0
-16.7485 -0.685391 0
-16.6566 -0.670498 0
-16.5497 -0.687996 0
-16.4552 -0.674839 0
-16.3753 -0.706111 0
-16.2874 -0.696206 0
-16.2076 -0.695655 0
-16.1215 -0.693988 0
-16.0159 -0.691718 0
-15.9453 -0.68599 0
-15.8435 -0.714555 0
-15.765 -0.698183 0
-15.6606 -0.705782 0
-15.5743 -0.697731 0
-15.4689 -0.691663 0
-15.3759 -0.688591 0
-15.2997 -0.697231 0
-15.2169 -0.690299 0
-15.1273 -0.673806 0
-15.023 -0.680124 0
-14.9561 -0.680094 0
-14.8541 -0.679647 0
-14.7631 -0.685892 0
-14.6715 -0.673036 0
-14.6079 -0.656734 0
-14.5235 -0.669135 0
-14.4368 -0.670687 0
-14.3334 -0.660674 0
-14.2426 -0.64406 0
-14.1359 -0.647922 0
-14.0552 -0.648269 0
-13.9526 -0.639203 0
-13.859 -0.638924 0
-13.7606 -0.65765 0
-13.6766 -0.662713 0
-13.5797 -0.656255 0
-13.5067 -0.655289 0
-13.4118 -0.663494 0
-13.3213 -0.656565 0
-13.2271 -0.64564 0
-13.1402 -0.63456 0
-13.0369 -0.667711 0
-12.9343 -0.665 0
-12.8537 -0.656004 0
-12.7572 -0.661117 0
-12.663 -0.671784 0
-12.5711 -0.694309 0
-12.4757 -0.683655 0
-12.3908 -0.655627 0
-12.3227 -0.647131 0
-12.2305 -0.643112 0
-12.1375 -0.654228 0
-12.051 -0.655118 0
-11.9582 -0.639577 0
-11.8688 -0.657765 0
-11.7848 -0.664564 0
-11.6884 -0.654621 0
-11.5965 -0.672873 0
-11.5109 -0.656088 0
-11.4166 -0.653891 0
-11.3214 -0.654377 0
-11.2298 -0.654243 0
-11.1519 -0.648992 0
-11.064 -0.67135 0
-10.97 -0.668791 0
-10.8861 -0.672601 0
-10.7811 -0.671566 0
-10.7051 -0.674336 0
-10.6012 -0.654381 0
-10.4985 -0.659296 0
-10.4096 -0.655755 0
-10.314 -0.677629 0
-10.2374 -0.680059 0
-10.134 -0.665564 0
-10.0429 -0.671272 0
-9.97049 -0.658705 0
-9.88224 -0.651692 0
-9.78342 -0.639796 0
-9.69288 -0.654756 0
-9.60137 -0.653344 0
-9.50812 -0.637221 0
-9.40622 -0.63929 0
-9.32024 -0.637796 0
-9.24297 -0.653111 0
-9.14843 -0.650042 0
-9.05764 -0.658026 0
-8.99336 -0.662718 0
-8.89506 -0.648114 0
-8.80174 -0.641333 0
-8.70714 -0.656248 0
-8.62503 -0.657396 0
-8.52497 -0.644223 0
-8.42411 -0.639356 0
-8.3295 -0.65408 0
-8.26025 -0.660482 0
-8.15521 -0.659076 0
-8.04982 -0.658264 0
-7.97971 -0.652792 0
-7.89405 -0.66166 0
-7.80555 -0.661506 0
-7.71539 -0.647043 0
-7.61027 -0.649986 0
-7.52356 -0.654007 0
-7.43631 -0.627479 0
-7.33979 -0.653318 0
-7.23961 -0.646183 0
-7.16028 -0.66465 0
-7.06228 -0.6569 0
-6.96805 -0.644486 0
-6.88002 -0.654661 0
-6.80092 -0.648071 0
-6.70133 -0.662558 0
-6.59864 -0.653323 0
-6.51996 -0.648679 0
-6.43387 -0.64825 0
-6.35633 -0.643285 0
-6.26894 -0.642675 0
-6.16855 -0.64625 0
-6.06638 -0.662745 0
-5.96414 -0.662603 0
-5.87627 -0.658512 0
-5.79121 -0.659435 0
-5.70732 -0.666847 0
-5.6328 -0.655942 0
-5.52815 -0.649765 0
-5.42397 -0.658827 0
-5.34491 -0.645154 0
-5.25062 -0.649751 0
-5.14586 -0.621042 0
-5.04998 -0.627768 0
-4.97683 -0.634239 0
-4.88126 -0.634736 0
-4.80067 -0.628363 0
-4.70604 -0.630688 0
-4.61073 -0.637724 0
-4.51186 -0.630067 0
-4.41609 -0.623691 0
-4.33346 -0.620747 0
-4.23845 -0.628582 0
-4.15417 -0.647183 0
-4.07928 -0.62557 0
-3.97485 -0.620688 0
-3.88371 -0.601277 0
-3.79702 -0.624773 0
-3.70748 -0.621833 0
-3.60766 -0.613187 0
-3.52164 -0.615977 0
-3.43737 -0.624357 0
-3.3372 -0.623031 0
-3.25065 -0.624311 0
-3.1726 -0.629908 0
-3.07253 -0.622809 0
-2.97252 -0.620429 0
-2.8805 -0.611267 0
-2.79903 -0.597605 0
-2.71272 -0.615624 0
-2.61698 -0.6081 0
-2.52704 -0.623671 0
-2.44185 -0.611681 0
-2.361 -0.634059 0
-2.27644 -0.633669 0
-2.18972 -0.617516 0
-2.0947 -0.621597 0
-2.00928 -0.624177 0
-1.9045 -0.631129 0
-1.82475 -0.619684 0
-1.72948 -0.608891 0
-1.64442 -0.61207 0
-1.54471 -0.597284 0
-1.44233 -0.6316 0
-1.35831 -0.63376 0
-1.26834 -0.633195 0
-1.19102 -0.631142 0
-1.09448 -0.617741 0
-1.00016 -0.624403 0
-0.907495 -0.626771 0
-0.808944 -0.643786 0
-0.723428 -0.6286 0
-0.620679 -0.624498 0
-0.527398 -0.614135 0
-0.439188 -0.608843 0
-0.350674 -0.611992 0
-0.256243 -0.62496 0
-0.16205 -0.647758 0
-0.0831331 -0.657683 0
0 -0.650215 0
-63.116 -0.414539 0
-63.0267 -0.426584 0
-62.9293 -0.424405 0
-62.8399 -0.425789 0
-62.757 -0.429629 0
-62.6674 -0.423561 0
-62.5776 -0.42054 0
-62.4902 -0.428467 0
-62.3944 -0.41897 0
-62.3003 -0.418095 0
-62.2129 -0.4121 0
-62.1214 -0.417094 0
-62.0306 -0.420574 0
-61.9381 -0.417699 0
-61.8486 -0.42562 0
-61.7641 -0.421466 0
-61.6688 -0.428402 0
-61.5797 -0.420727 0
-61.4894 -0.42844 0
-61.4077 -0.414847 0
-61.3162 -0.420753 0
-61.2259 -0.421558 0
-61.1306 -0.423685 0
-61.0426 -0.430801 0
-60.9595 -0.435833 0
-60.8682 -0.428818 0
-60.7766 -0.422653 0
-60.6906 -0.420801 0
-60.5961 -0.429499 0
-60.5072 -0.430281 0
-60.4185 -0.426969 0
-60.3322 -0.421543 0
-60.2454 -0.427089 0
-60.1526 -0.41936 0
-60.0661 -0.417647 0
-59.9741 -0.416786 0
-59.8872 -0.413288 0
-59.7944 -0.427323 0
-59.7095 -0.431304 0
-59.6223 -0.422684 0
-59.5278 -0.423779 0
-59.4324 -0.434286 0
-59.3429 -0.437278 0
-59.2507 -0.433263 0
-59.162 -0.43485 0
-59.0782 -0.428276 0
-58.9913 -0.434516 0
-58.9004 -0.431208 0
-58.806 -0.433124 0
-58.7124 -0.432807 0
-58.6284 -0.437312 0
-58.5347 -0.439058 0
-58.4412 -0.439701 0
-58.3568 -0.43613 0
-58.2681 -0.439074 0
-58.1802 -0.437996 0
-58.0841 -0.438827 0
-57.9953 -0.449225 0
-57.9042 -0.439911 0
-57.812 -0.444365 0
-57.7126 -0.45081 0
-57.6319 -0.451326 0
-57.5548 -0.457287 0
-57.468 -0.461829 0
-57.3709 -0.466072 0
-57.2787 -0.457203 0
-57.1877 -0.463302 0
-57.1064 -0.459898 0
-57.014 -0.460169 0
-56.9238 -0.457652 0
-56.8286 -0.46418 0
-56.7374 -0.477997 0
-56.6442 -0.472929 0
-56.5505 -0.462622 0
-56.4675 -0.472365 0
-56.3784 -0.464036 0
-56.2937 -0.468456 0
-56.2077 -0.469882 0
-56.1186 -0.463538 0
-56.0232 -0.467305 0
-55.9332 -0.476276 0
-55.8491 -0.471276 0
-55.7602 -0.468912 0
-55.6684 -0.479581 0
-55.5766 -0.485707 0
-55.4919 -0.483914 0
-55.4005 -0.481873 0
-55.3121 -0.476179 0
-55.2144 -0.481555 0
-55.1197 -0.492198 0
-55.0351 -0.489853 0
-54.9466 -0.484815 0
-54.86 -0.480288 0
-54.765 -0.49069 0
-54.6792 -0.482286 0
-54.5856 -0.491314 0
-54.4967 -0.493456 0
-54.409 -0.496494 0
-54.318 -0.50064 0
-54.2327 -0.500869 0
-54.1499 -0.494632 0
-54.0589 -0.491524 0
-53.969 -0.493419 0
-53.8765 -0.487664 0
-53.7822 -0.485774 0
-53.6958 -0.49933 0
-53.6058 -0.489138 0
-53.5113 -0.498829 0
-53.427 -0.49441 0
-53.3388 -0.499055 0
-53.2521 -0.507182 0
-53.1595 -0.512159 0
-53.0672 -0.510636 0
-52.9784 -0.513171 0
-52.886 -0.508819 0
-52.7955 -0.509525 0
-52.7077 -0.506263 0
-52.6132 -0.502406 0
-52.5278 -0.50549 0
-52.4328 -0.510874 0
-52.3451 -0.509282 0
-52.2534 -0.516354 0
-52.172 -0.508705 0
-52.0755 -0.518638 0
-51.9885 -0.518545 0
-51.901 -0.519455 0
-51.8048 -0.508865 0
-51.7168 -0.513678 0
-51.6331 -0.510972 0
-51.5451 -0.524353 0
-51.4559 -0.532792 0
-51.3692 -0.535328 0
-51.276 -0.525241 0
-51.1846 -0.537226 0
-51.0964 -0.532411 0
-51.0153 -0.522038 0
-50.9206 -0.522135 0
-50.8266 -0.520811 0
-50.7318 -0.516976 0
-50.6439 -0.525586 0
-50.5524 -0.519954 0
-50.4578 -0.514035 0
-50.3707 -0.521934 0
-50.292 -0.535844 0
-50.2029 -0.533445 0
-50.1158 -0.532447 0
-50.0275 -0.524374 0
-49.945 -0.534863 0
-49.8455 -0.531924 0
-49.7497 -0.521622 0
-49.6667 -0.529738 0
-49.5672 -0.532481 0
-49.4815 -0.530356 0
-49.3889 -0.539346 0
-49.2989 -0.53233 0
-49.2068 -0.528582 0
-49.1113 -0.51994 0
-49.021 -0.524987 0
-48.9331 -0.530625 0
-48.8401 -0.529218 0
-48.7527 -0.538789 0
-48.6691 -0.546122 0
-48.5784 -0.555878 0
-48.4809 -0.554327 0
-48.3952 -0.553486 0
-48.2975 -0.547807 0
-48.2126 -0.544591 0
-48.121 -0.542554 0
-48.0333 -0.550655 0
-47.9419 -0.54353 0
-47.8485 -0.543523 0
-47.7643 -0.536916 0
-47.6715 -0.551206 0
-47.589 -0.533701 0
-47.5044 -0.534216 0
-47.4146 -0.547463 0
-47.3309 -0.543992 0
-47.2275 -0.548483 0
-47.1328 -0.546583 0
-47.0321 -0.554861 0
-46.9473 -0.566327 0
-46.8639 -0.561814 0
-46.7621 -0.557469 0
-46.6886 -0.551409 0
-46.6086 -0.544313 0
-46.5168 -0.559122 0
-46.4235 -0.560552 0
-46.3247 -0.54984 0
-46.2372 -0.556265 0
-46.146 -0.553744 0
-46.0515 -0.559473 0
-45.9604 -0.550252 0
-45.8717 -0.547903 0
-45.7892 -0.554911 0
-45.7033 -0.564426 0
-45.6121 -0.564841 0
-45.5135 -0.558051 0
-45.4282 -0.554008 0
-45.3437 -0.565361 0
-45.2546 -0.56391 0
-45.1602 -0.563065 0
-45.0637 -0.558961 0
-44.9754 -0.543167 0
-44.8876 -0.545866 0
-44.7879 -0.556244 0
-44.7098 -0.55326 0
-44.6142 -0.548743 0
-44.5225 -0.557726 0
-44.4307 -0.559955 0
-44.3418 -0.560729 0
-44.2531 -0.555179 0
-44.1536 -0.557722 0
-44.0687 -0.560772 0
-43.9786 -0.562063 0
-43.8926 -0.563983 0
-43.8096 -0.5608 0
-43.7174 -0.555522 0
-43.6286 -0.549738 0
-43.5391 -0.556249 0
-43.4508 -0.556269 0
-43.3571 -0.556063 0
-43.2747 -0.559156 0
-43.188 -0.561292 0
-43.1044 -0.560827 0
-43.0154 -0.554426 0
-42.9126 -0.562707 0
-42.8192 -0.56297 0
-42.7398 -0.565767 0
-42.6522 -0.570166 0
-42.5541 -0.570666 0
-42.4625 -0.562063 0
-42.3704 -0.552401 0
-42.2822 -0.564324 0
-42.193 -0.564099 0
-42.1059 -0.561741 0
-42.0158 -0.582319 0
-41.9275 -0.573953 0
-41.8339 -0.583893 0
-41.7394 -0.570788 0
-41.6489 -0.563312 0
-41.5611 -0.561987 0
-41.4779 -0.567804 0
-41.3889 -0.56564 0
-41.3035 -0.569942 0
-41.2094 -0.570303 0
-41.1246 -0.570864 0
-41.0336 -0.580559 0
-40.9297 -0.572998 0
-40.8418 -0.570149 0
-40.7593 -0.571604 0
-40.6694 -0.558152 0
-40.575 -0.560874 0
-40.4778 -0.561018 0
-40.3882 -0.564169 0
-40.3027 -0.570614 0
-40.2168 -0.574999 0
-40.1264 -0.573683 0
-40.034 -0.578559 0
-39.9441 -0.577849 0
-39.8493 -0.574312 0
-39.7648 -0.574573 0
-39.6763 -0.568313 0
-39.5851 -0.576891 0
-39.4983 -0.573465 0
-39.4071 -0.564256 0
-39.3173 -0.569761 0
-39.2273 -0.573313 0
-39.1332 -0.566906 0
-39.051 -0.562632 0
-38.9577 -0.558129 0
-38.8637 -0.562813 0
-38.7719 -0.558477 0
-38.6753 -0.555329 0
-38.586 -0.555854 0
-38.4954 -0.551097 0
-38.4088 -0.558477 0
-38.3212 -0.564259 0
-38.2241 -0.580756 0
-38.1334 -0.576698 0
-38.0439 -0.581065 0
-37.9524 -0.572903 0
-37.858 -0.563103 0
-37.7608 -0.564296 0
-37.6721 -0.56548 0
-37.5909 -0.564145 0
-37.5054 -0.566007 0
-37.4161 -0.556569 0
-37.3336 -0.557243 0
-37.2445 -0.567505 0
-37.1494 -0.571559 0
-37.0605 -0.564118 0
-36.9649 -0.569099 0
-36.865 -0.563322 0
-36.772 -0.562887 0
-36.6844 -0.567154 0
-36.5937 -0.559919 0
-36.5101 -0.555411 0
-36.423 -0.550407 0
-36.3304 -0.549841 0
-36.2363 -0.555643 0
-36.1388 -0.562545 0
-36.0562 -0.561663 0
-35.9721 -0.562419 0
-35.8927 -0.561122 0
-35.7999 -0.566761 0
-35.6965 -0.560884 0
-35.61 -0.545866 0
-35.5221 -0.545812 0
-35.4317 -0.546093 0
-35.3365 -0.55747 0
-35.2494 -0.558719 0
-35.163 -0.554769 0
-35.0688 -0.561112 0
-34.9793 -0.568719 0
-34.8841 -0.563299 0
-34.7929 -0.560698 0
-34.6993 -0.552054 0
-34.6129 -0.548566 0
-34.5306 -0.541798 0
-34.4383 -0.541575 0
-34.3486 -0.549925 0
-34.2684 -0.55029 0
-34.1678 -0.563283 0
-34.0778 -0.56172 0
-33.9895 -0.563789 0
-33.9056 -0.564928 0
-33.8235 -0.55922 0
-33.7213 -0.556564 0
-33.634 -0.544086 0
-33.5441 -0.533285 0
-33.4556 -0.543379 0
-33.3566 -0.541233 0
-33.2609 -0.546238 0
-33.1822 -0.530132 0
-33.0915 -0.534084 0
-33.0068 -0.537998 0
-32.9148 -0.533088 0
-32.8184 -0.541803 0
-32.728 -0.536788 0
-32.6323 -0.533813 0
-32.5323 -0.529436 0
-32.4379 -0.533862 0
-32.3507 -0.537081 0
-32.2554 -0.545206 0
-32.1681 -0.545415 0
-32.0743 -0.547823 0
-31.9833 -0.547776 0
-31.9019 -0.543557 0
-31.8148 -0.553548 0
-31.7174 -0.548554 0
-31.631 -0.539852 0
-31.5444 -0.546402 0
-31.457 -0.542433 0
-31.3646 -0.538686 0
-31.2733 -0.542592 0
-31.1743 -0.544147 0
-31.0886 -0.549924 0
-31.0038 -0.548772 0
-30.9123 -0.550349 0
-30.8184 -0.544829 0
-30.7226 -0.551306 0
-30.6399 -0.550047 0
-30.5495 -0.548283 0
-30.4567 -0.53909 0
-30.3669 -0.539223 0
-30.2742 -0.537666 0
-30.1755 -0.546515 0
-30.0975 -0.545374 0
-30.0039 -0.547011 0
-29.9067 -0.548319 0
-29.8118 -0.538859 0
-29.7238 -0.55436 0
-29.6395 -0.551953 0
-29.5422 -0.559747 0
-29.4581 -0.552227 0
-29.3613 -0.551324 0
-29.2711 -0.549863 0
-29.1751 -0.569005 0
-29.1023 -0.561816 0
-29.0134 -0.558602 0
-28.9172 -0.549091 0
-28.8165 -0.560389 0
-28.7236 -0.54926 0
-28.6446 -0.559222 0
-28.5534 -0.571501 0
-28.4602 -0.567882 0
-28.3717 -0.563389 0
-28.2788 -0.566157 0
-28.1916 -0.563866 0
-28.0953 -0.561331 0
-28.013 -0.558647 0
-27.9253 -0.56332 0
-27.8338 -0.563975 0
-27.7347 -0.574329 0
-27.6422 -0.577137 0
-27.5538 -0.584679 0
-27.4642 -0.576349 0
-27.3839 -0.578118 0
-27.2918 -0.580329 0
-27.203 -0.583245 0
-27.1151 -0.585779 0
-27.024 -0.581573 0
-26.9355 -0.583495 0
-26.8376 -0.591552 0
-26.7507 -0.573434 0
-26.663 -0.58082 0
-26.5717 -0.59091 0
-26.4754 -0.60555 0
-26.3847 -0.610181 0
-26.2979 -0.616169 0
-26.207 -0.609446 0
-26.114 -0.595621 0
-26.0253 -0.602197 0
-25.9359 -0.592595 0
-25.853 -0.592083 0
-25.7567 -0.588186 0
-25.661 -0.595555 0
-25.5742 -0.602043 0
-25.4836 -0.603181 0
-25.3887 -0.606699 0
-25.3083 -0.608215 0
-25.2162 -0.616758 0
-25.1316 -0.610655 0
-25.046 -0.624751 0
-24.9467 -0.622823 0
-24.8625 -0.616919 0
-24.7709 -0.619483 0
-24.6677 -0.623771 0
-24.5821 -0.626553 0
-24.4945 -0.619183 0
-24.4014 -0.622831 0
-24.3164 -0.629266 0
-24.216 -0.617774 0
-24.1254 -0.629814 0
-24.0363 -0.638302 0
-23.9507 -0.636511 0
-23.8562 -0.640631 0
-23.7724 -0.647536 0
-23.6877 -0.638945 0
-23.6032 -0.643233 0
-23.5159 -0.633194 0
-23.427 -0.651018 0
-23.3327 -0.652622 0
-23.2439 -0.642334 0
-23.1378 -0.636627 0
-23.0455 -0.63631 0
-22.9482 -0.642039 0
-22.8588 -0.638249 0
-22.7832 -0.64558 0
-22.6909 -0.64726 0
-22.6015 -0.627416 0
-22.5236 -0.629209 0
-22.4245 -0.645746 0
-22.3338 -0.638154 0
-22.244 -0.624128 0
-22.1618 -0.630634 0
-22.0601 -0.638582 0
-21.9719 -0.65031 0
-21.8863 -0.640235 0
-21.7907 -0.644169 0
-21.6956 -0.643894 0
-21.62 -0.640846 0
-21.5353 -0.637748 0
-21.4447 -0.62942 0
-21.3566 -0.622314 0
-21.2672 -0.635292 0
-21.1713 -0.650281 0
-21.0732 -0.642927 0
-20.9718 -0.636966 0
-20.8948 -0.64165 0
-20.8066 -0.638748 0
-20.716 -0.651155 0
-20.6225 -0.647679 0
-20.5229 -0.637858 0
-20.4508 -0.644339 0
-20.3604 -0.645411 0
-20.2762 -0.640239 0
-20.1802 -0.635501 0
-20.0832 -0.635195 0
-19.9867 -0.631555 0
-19.8933 -0.632084 0
-19.8075 -0.64711 0
-19.7149 -0.64133 0
-19.6225 -0.633346 0
-19.5344 -0.637202 0
-19.4421 -0.645467 0
-19.3451 -0.643193 0
-19.2624 -0.633658 0
-19.1721 -0.631006 0
-19.0815 -0.63085 0
-18.9926 -0.627656 0
-18.9077 -0.632798 0
-18.8039 -0.625331 0
-18.7091 -0.625329 0
-18.6201 -0.631531 0
-18.5387 -0.620736 0
-18.4527 -0.625321 0
-18.3721 -0.624884 0
-18.2936 -0.618056 0
-18.1958 -0.616714 0
-18.1014 -0.626122 0
-18.0145 -0.626051 0
-17.9111 -0.626588 0
-17.8209 -0.636919 0
-17.7292 -0.653867 0
-17.6426 -0.651476 0
-17.5666 -0.626393 0
-17.4848 -0.641838 0
-17.3912 -0.644278 0
-17.2986 -0.635306 0
-17.1981 -0.630345 0
-17.1127 -0.622534 0
-17.0173 -0.626936 0
-16.9288 -0.619832 0
-16.8346 -0.628826 0
-16.7481 -0.624332 0
-16.6426 -0.628861 0
-16.5608 -0.61823 0
-16.4722 -0.636037 0
-16.3767 -0.643971 0
-16.301 -0.641402 0
-16.2097 -0.639156 0
-16.1171 -0.636297 0
-16.0184 -0.641746 0
-15.9317 -0.648362 0
-15.8463 -0.645296 0
-15.7479 -0.639073 0
-15.6591 -0.647091 0
-15.5718 -0.65074 0
-15.4686 -0.63773 0
-15.3957 -0.641422 0
-15.3011 -0.638939 0
-15.2173 -0.638774 0
-15.1221 -0.618564 0
-15.0377 -0.629113 0
-14.9446 -0.630592 0
-14.8552 -0.625429 0
-14.7619 -0.62284 0
-14.6669 -0.619941 0
-14.5827 -0.619178 0
-14.5067 -0.610787 0
-14.4318 -0.615746 0
-14.3415 -0.606802 0
-14.2421 -0.595563 0
-14.1499 -0.607854 0
-14.0554 -0.60376 0
-13.9549 -0.57278 0
-13.8741 -0.581865 0
-13.7742 -0.602208 0
-13.6692 -0.598798 0
-13.5865 -0.608717 0
-13.4995 -0.596635 0
-13.3967 -0.604863 0
-13.3061 -0.587076 0
-13.2168 -0.58299 0
-13.1412 -0.5876 0
-13.0534 -0.60183 0
-12.9486 -0.609533 0
-12.8526 -0.598472 0
-12.7573 -0.596916 0
-12.677 -0.613207 0
-12.5827 -0.613448 0
-12.485 -0.624825 0
-12.3819 -0.612974 0
-12.3108 -0.601366 0
-12.2269 -0.606279 0
-12.1351 -0.607517 0
-12.0428 -0.600517 0
-11.9636 -0.592198 0
-11.8703 -0.608027 0
-11.7658 -0.604738 0
-11.6798 -0.606638 0
-11.6008 -0.606533 0
-11.5083 -0.60358 0
-11.4146 -0.598544 0
-11.3295 -0.601615 0
-11.2429 -0.602713 0
-11.1558 -0.604394 0
-11.0573 -0.617113 0
-10.9741 -0.616458 0
-10.8768 -0.617475 0
-10.7836 -0.618952 0
-10.6935 -0.615321 0
-10.6063 -0.598269 0
-10.5106 -0.616341 0
-10.4139 -0.600564 0
-10.3198 -0.620427 0
-10.2273 -0.620693 0
-10.1332 -0.606156 0
-10.0431 -0.607164 0
-9.95126 -0.608276 0
-9.8655 -0.600286 0
-9.7856 -0.607865 0
-9.68297 -0.60347 0
-9.58504 -0.592412 0
-9.49314 -0.594919 0
-9.41695 -0.598626 0
-9.33106 -0.596554 0
-9.22849 -0.593852 0
-9.15158 -0.607419 0
-9.07052 -0.610657 0
-8.97598 -0.608333 0
-8.89274 -0.594785 0
-8.7973 -0.596396 0
-8.70518 -0.596234 0
-8.61515 -0.596054 0
-8.52176 -0.589445 0
-8.43585 -0.588658 0
-8.3324 -0.591403 0
-8.24231 -0.598443 0
-8.15825 -0.608739 0
-8.07398 -0.606267 0
-7.97996 -0.601039 0
-7.88861 -0.6108 0
-7.79442 -0.615001 0
-7.69864 -0.601845 0
-7.61038 -0.593552 0
-7.51486 -0.589919 0
-7.4224 -0.586327 0
-7.33152 -0.590385 0
-7.24148 -0.599369 0
-7.15175 -0.605335 0
-7.04919 -0.595686 0
-6.96033 -0.601306 0
-6.89604 -0.601012 0
-6.80354 -0.59959 0
-6.70204 -0.610237 0
-6.60715 -0.60988 0
-6.51601 -0.602577 0
-6.43434 -0.603306 0
-6.34573 -0.597846 0
-6.25317 -0.589698 0
-6.16879 -0.588878 0
-6.07176 -0.604173 0
-5.97729 -0.607509 0
-5.88767 -0.600024 0
-5.79129 -0.604063 0
-5.70162 -0.608252 0
-5.61357 -0.600027 0
-5.52506 -0.589379 0
-5.43423 -0.588446 0
-5.32912 -0.593368 0
-5.23297 -0.589407 0
-5.15388 -0.578258 0
-5.07149 -0.578258 0
-4.96714 -0.582554 0
-4.87979 -0.580481 0
-4.7875 -0.573708 0
-4.69978 -0.568756 0
-4.6031 -0.569446 0
-4.51432 -0.577455 0
-4.42479 -0.571063 0
-4.32976 -0.574885 0
-4.25423 -0.575826 0
-4.16356 -0.58576 0
-4.06522 -0.574094 0
-3.97724 -0.558938 0
-3.88695 -0.556115 0
-3.79415 -0.568671 0
-3.70069 -0.56286 0
-3.60563 -0.565333 0
-3.53189 -0.569058 0
-3.43337 -0.570707 0
-3.3526 -0.572301 0
-3.26837 -0.573997 0
-3.15952 -0.572044 0
-3.07497 -0.562164 0
-2.97436 -0.561408 0
-2.88576 -0.54601 0
-2.79358 -0.552269 0
-2.71141 -0.557086 0
-2.61911 -0.558048 0
-2.54286 -0.563347 0
-2.45447 -0.565856 0
-2.36334 -0.576635 0
-2.26962 -0.564801 0
-2.18529 -0.562056 0
-2.0902 -0.558235 0
-1.99293 -0.566841 0
-1.90449 -0.565886 0
-1.81013 -0.562871 0
-1.71804 -0.561778 0
-1.63022 -0.558097 0
-1.5446 -0.555965 0
-1.45698 -0.581577 0
-1.35551 -0.574114 0
-1.27483 -0.582756 0
-1.18059 -0.579047 0
-1.08043 -0.568778 0
-0.98681 -0.562122 0
-0.899646 -0.573754 0
-0.810279 -0.583492 0
-0.720574 -0.572768 0
-0.631232 -0.581991 0
-0.541413 -0.567122 0
-0.454606 -0.561218 0
-0.3634 -0.55047 0
-0.271914 -0.577218 0
-0.175677 -0.5886 0
-0.0973856 -0.60252 0
0 -0.602331 0
-63.116 -0.370851 0
-63.0243 -0.364664 0
-62.9384 -0.367167 0
-62.8467 -0.371091 0
-62.749 -0.371526 0
-62.6659 -0.374126 0
-62.5756 -0.369897 0
-62.484 -0.368404 0
-62.3891 -0.362181 0
-62.2997 -0.361787 0
-62.2147 -0.357386 0
-62.1235 -0.358951 0
-62.0363 -0.361661 0
-61.9455 -0.366491 0
-61.8556 -0.369075 0
-61.7664 -0.363621 0
-61.6803 -0.371228 0
-61.5892 -0.363966 0
-61.4955 -0.365542 0
-61.4043 -0.363862 0
-61.3158 -0.364036 0
-61.2238 -0.3625 0
-61.1335 -0.368251 0