<?xml version="1.0"?>
<VTKFile type="StructuredGrid"  version="0.1" byte_order="LittleEndian" compressor="vtkZLibDataCompressor">
  <StructuredGrid WholeExtent="0 700 0 30 0 0">
    <Piece Extent="0 700 0 30 0 0">
      <PointData Vectors="Velocity">
        <DataArray type="Float32" Name="Velocity" NumberOfComponents="3" format="ascii">
-1051.92 86.7979 0
-1052.4 77.5779 0
-1052.92 68.4898 0
-1053.47 59.6174 0
-1054.04 51.0114 0
-1054.65 42.7477 0
-1055.31 34.9051 0
-1055.98 27.5387 0
-1056.64 20.6717 0
-1057.29 14.3295 0
-1057.9 8.52786 0
-1058.46 3.2869 0
-1058.94 -1.38413 0
-1059.29 -5.55842 0
-1059.47 -9.42472 0
-1059.69 -13.0634 0
-1059.96 -16.3758 0
-1060.21 -19.307 0
-1060.43 -21.8578 0
-1060.62 -24.032 0
-1060.78 -25.8445 0
-1060.88 -27.3118 0
-1060.93 -28.4613 0
-1060.91 -29.3152 0
-1060.82 -29.9056 0
-1060.65 -30.258 0
-1060.4 -30.394 0
-1060.07 -30.3406 0
-1059.67 -30.1171 0
-1059.18 -29.7432 0
-1058.62 -29.2343 0
-1057.99 -28.6063 0
-1057.28 -27.8748 0
-1056.5 -27.0566 0
-1055.66 -26.1629 0
-1054.75 -25.2019 0
-1053.78 -24.1877 0
-1052.75 -23.1291 0
-1051.67 -22.0383 0
-1050.53 -20.9204 0
-1049.34 -19.7848 0
-1048.1 -18.6389 0
-1046.81 -17.4883 0
-1045.49 -16.3413 0
-1044.12 -15.2016 0
-1042.71 -14.072 0
-1041.27 -12.9634 0
-1039.79 -11.8731 0
-1038.29 -10.8066 0
-1036.75 -9.76843 0
-1035.19 -8.76068 0
-1033.6 -7.78644 0
-1031.99 -6.84727 0
-1030.35 -5.94251 0
-1028.7 -5.07703 0
-1027.03 -4.25087 0
-1025.35 -3.46571 0
-1023.65 -2.72079 0
-1021.93 -2.01887 0
-1020.21 -1.35868 0
-1018.47 -0.740207 0
-1016.73 -0.162386 0
-1014.98 0.369743 0
-1013.22 0.861619 0
-1011.46 1.3119 0
-1009.69 1.72169 0
-1007.92 2.09052 0
-1006.14 2.41878 0
-1004.36 2.70917 0
-1002.59 2.96158 0
-1000.81 3.17674 0
-999.034 3.35731 0
-997.259 3.50105 0
-995.486 3.61183 0
-993.716 3.68788 0
-991.947 3.73555 0
-990.185 3.75425 0
-988.425 3.74088 0
-986.671 3.70193 0
-984.921 3.63638 0
-983.176 3.54521 0
-981.438 3.43203 0
-979.707 3.2973 0
-977.981 3.1405 0
-976.262 2.96517 0
-974.55 2.772 0
-972.844 2.56247 0
-971.146 2.33884 0
-969.454 2.10043 0
-967.768 1.85076 0
-966.091 1.58695 0
-964.42 1.31548 0
-962.755 1.03641 0
-961.098 0.74752 0
-959.448 0.452313 0
-957.808 0.154381 0
-956.172 -0.147234 0
-954.545 -0.453979 0
-952.925 -0.760761 0
-951.309 -1.06818 0
-949.699 -1.37573 0
-948.096 -1.6818 0
-946.498 -1.98502 0
-944.906 -2.28723 0
-943.32 -2.58445 0
-941.737 -2.87904 0
-940.162 -3.16691 0
-938.591 -3.44862 0
-937.026 -3.72362 0
-935.463 -3.99179 0
-933.902 -4.2548 0
-932.347 -4.50745 0
-930.794 -4.75129 0
-929.247 -4.98514 0
-927.701 -5.21189 0
-926.158 -5.4263 0
-924.617 -5.63298 0
-923.078 -5.82932 0
-921.541 -6.01473 0
-920.007 -6.19002 0
-918.474 -6.35639 0
-916.94 -6.50898 0
-915.41 -6.65331 0
-913.878 -6.78667 0
-912.349 -6.90785 0
-910.818 -7.01944 0
-909.289 -7.11991 0
-907.759 -7.21198 0
-906.229 -7.29134 0
-904.699 -7.36348 0
-903.169 -7.42321 0
-901.639 -7.47236 0
-900.106 -7.51419 0
-898.574 -7.54759 0
-897.04 -7.5692 0
-895.505 -7.58253 0
-893.969 -7.58908 0
-892.43 -7.58595 0
-890.89 -7.57848 0
-889.349 -7.56029 0
-887.809 -7.5377 0
-886.267 -7.50637 0
-884.722 -7.46607 0
-883.175 -7.42227 0
-881.625 -7.37486 0
-880.074 -7.31996 0
-878.521 -7.25991 0
-876.968 -7.19472 0
-875.412 -7.12688 0
-873.853 -7.05486 0
-872.295 -6.97874 0
-870.731 -6.89683 0
-869.169 -6.81533 0
-867.603 -6.72627 0
-866.034 -6.63863 0
-864.466 -6.54755 0
-862.896 -6.45721 0
-861.324 -6.3628 0
-859.749 -6.26693 0
-858.173 -6.17195 0
-856.596 -6.07422 0
-855.019 -5.97687 0
-853.438 -5.88049 0
-851.855 -5.78127 0
-850.272 -5.68457 0
-848.685 -5.59056 0
-847.099 -5.49652 0
-845.51 -5.40234 0
-843.921 -5.30846 0
-842.332 -5.21723 0
-840.739 -5.1274 0
-839.146 -5.03826 0
-837.552 -4.95125 0
-835.956 -4.86552 0
-834.361 -4.78492 0
-832.764 -4.70615 0
-831.167 -4.63008 0
-829.569 -4.55401 0
-827.966 -4.48046 0
-826.368 -4.41108 0
-824.766 -4.34444 0
-823.167 -4.28255 0
-821.569 -4.21943 0
-819.969 -4.16066 0
-818.365 -4.10352 0
-816.76 -4.05298 0
-815.157 -4.00118 0
-813.554 -3.9544 0
-811.951 -3.91277 0
-810.349 -3.87528 0
-808.745 -3.83723 0
-807.142 -3.80479 0
-805.539 -3.77189 0
-803.936 -3.74365 0
-802.333 -3.71825 0
-800.728 -3.69466 0
-799.125 -3.67563 0
-797.523 -3.66069 0
-795.92 -3.64597 0
-794.318 -3.63286 0
-792.717 -3.62582 0
-791.116 -3.61956 0
-789.513 -3.61808 0
-787.914 -3.61562 0
-786.31 -3.61643 0
-784.711 -3.6212 0
-783.111 -3.62506 0
-781.511 -3.63513 0
-779.914 -3.64374 0
-778.314 -3.65345 0
-776.717 -3.66902 0
-775.118 -3.68323 0
-773.52 -3.69978 0
-771.926 -3.71958 0
-770.333 -3.74455 0
-768.736 -3.76352 0
-767.139 -3.78656 0
-765.545 -3.80964 0
-763.951 -3.83087 0
-762.356 -3.8573 0
-760.763 -3.88465 0
-759.171 -3.91242 0
-757.578 -3.94262 0
-755.988 -3.97267 0
-754.396 -4.00413 0
-752.808 -4.03626 0
-751.218 -4.06553 0
-749.628 -4.09525 0
-748.04 -4.12417 0
-746.451 -4.15483 0
-744.861 -4.18909 0
-743.272 -4.22295 0
-741.688 -4.2548 0
-740.101 -4.2863 0
-738.514 -4.3157 0
-736.926 -4.34658 0
-735.341 -4.37743 0
-733.754 -4.41135 0
-732.172 -4.44043 0
-730.585 -4.47219 0
-729.001 -4.49861 0
-727.419 -4.52943 0
-725.836 -4.55634 0
-724.251 -4.58224 0
-722.667 -4.61196 0
-721.085 -4.63834 0
-719.503 -4.66527 0
-717.92 -4.6893 0
-716.339 -4.71394 0
-714.757 -4.73665 0
-713.176 -4.75658 0
-711.593 -4.77909 0
-710.012 -4.801 0
-708.433 -4.82083 0
-706.85 -4.83512 0
-705.269 -4.85255 0
-703.689 -4.87318 0
-702.107 -4.8887 0
-700.527 -4.90556 0
-698.947 -4.9181 0
-697.367 -4.93343 0
-695.787 -4.94475 0
-694.208 -4.95414 0
-692.624 -4.96679 0
-691.043 -4.97692 0
-689.462 -4.98581 0
-687.882 -4.99251 0
-686.3 -5.00454 0
-684.721 -5.00872 0
-683.141 -5.01252 0
-681.563 -5.01735 0
-679.983 -5.02186 0
-678.401 -5.02155 0
-676.82 -5.02554 0
-675.24 -5.02829 0
-673.657 -5.02666 0
-672.078 -5.02547 0
-670.498 -5.0313 0
-668.915 -5.02737 0
-667.328 -5.02681 0
-665.748 -5.02277 0
-664.168 -5.02091 0
-662.586 -5.01507 0
-661.004 -5.01157 0
-659.421 -5.00365 0
-657.836 -5.00253 0
-656.256 -4.99344 0
-654.673 -4.98729 0
-653.091 -4.98053 0
-651.509 -4.97217 0
-649.926 -4.96677 0
-648.344 -4.96134 0
-646.758 -4.95268 0
-645.174 -4.94339 0
-643.594 -4.93734 0
-642.006 -4.9287 0
-640.421 -4.91787 0
-638.833 -4.91048 0
-637.249 -4.89598 0
-635.666 -4.88902 0
-634.082 -4.88024 0
-632.498 -4.86865 0
-630.915 -4.86234 0
-629.33 -4.85072 0
-627.744 -4.84337 0
-626.16 -4.83165 0
-624.573 -4.82426 0
-622.987 -4.81323 0
-621.403 -4.80297 0
-619.817 -4.7898 0
-618.228 -4.78155 0
-616.644 -4.76933 0
-615.059 -4.76013 0
-613.47 -4.74786 0
-611.882 -4.74198 0
-610.299 -4.73096 0
-608.71 -4.72424 0
-607.123 -4.71688 0
-605.534 -4.70822 0
-603.946 -4.69932 0
-602.361 -4.68821 0
-600.775 -4.68522 0
-599.187 -4.67585 0
-597.602 -4.66886 0
-596.014 -4.66222 0
-594.43 -4.65565 0
-592.841 -4.64388 0
-591.254 -4.63582 0
-589.669 -4.63319 0
-588.079 -4.62628 0
-586.495 -4.6198 0
-584.906 -4.61339 0
-583.317 -4.60804 0
-581.726 -4.60408 0
-580.139 -4.60366 0
-578.554 -4.59426 0
-576.967 -4.58896 0
-575.379 -4.58695 0
-573.795 -4.58305 0
-572.204 -4.58057 0
-570.618 -4.57322 0
-569.031 -4.57364 0
-567.44 -4.57147 0
-565.851 -4.57397 0
-564.263 -4.56883 0
-562.677 -4.5691 0
-561.091 -4.57066 0
-559.504 -4.56815 0
-557.914 -4.56743 0
-556.328 -4.56791 0
-554.741 -4.56455 0
-553.152 -4.56566 0
-551.567 -4.56191 0
-549.975 -4.5642 0
-548.389 -4.56676 0
-546.802 -4.56871 0
-545.212 -4.57251 0
-543.624 -4.57147 0
-542.038 -4.57162 0
-540.454 -4.57088 0
-538.871 -4.57141 0
-537.282 -4.57303 0
-535.695 -4.57968 0
-534.112 -4.5768 0
-532.525 -4.57583 0
-530.939 -4.58143 0
-529.353 -4.58422 0
-527.763 -4.58834 0
-526.176 -4.58955 0
-524.592 -4.5908 0
-523.007 -4.59699 0
-521.417 -4.59831 0
-519.832 -4.60212 0
-518.246 -4.60516 0
-516.657 -4.61069 0
-515.069 -4.61494 0
-513.484 -4.61933 0
-511.9 -4.62154 0
-510.316 -4.62493 0
-508.732 -4.6269 0
-507.144 -4.62841 0
-505.556 -4.63796 0
-503.969 -4.64322 0
-502.385 -4.64306 0
-500.798 -4.64756 0
-499.214 -4.65316 0
-497.626 -4.6551 0
-496.043 -4.65495 0
-494.461 -4.65906 0
-492.874 -4.66021 0
-491.288 -4.66209 0
-489.702 -4.66648 0
-488.115 -4.67135 0
-486.529 -4.67739 0
-484.945 -4.68291 0
-483.36 -4.68839 0
-481.777 -4.68817 0
-480.191 -4.69532 0
-478.606 -4.69683 0
-477.021 -4.69111 0
-475.434 -4.69745 0
-473.848 -4.70212 0
-472.26 -4.70853 0
-470.68 -4.70915 0
-469.1 -4.71066 0
-467.511 -4.71418 0
-465.926 -4.7164 0
-464.344 -4.71892 0
-462.755 -4.71854 0
-461.169 -4.72242 0
-459.584 -4.72687 0
-457.999 -4.72782 0
-456.417 -4.73088 0
-454.829 -4.73496 0
-453.243 -4.73807 0
-451.659 -4.73601 0
-450.072 -4.73668 0
-448.488 -4.73637 0
-446.904 -4.73723 0
-445.32 -4.74174 0
-443.736 -4.74723 0
-442.152 -4.75185 0
-440.568 -4.74704 0
-438.984 -4.75037 0
-437.398 -4.74717 0
-435.815 -4.75035 0
-434.225 -4.75121 0
-432.642 -4.75179 0
-431.06 -4.7526 0
-429.474 -4.75134 0
-427.887 -4.75042 0
-426.305 -4.75561 0
-424.719 -4.74755 0
-423.135 -4.74779 0
-421.553 -4.74813 0
-419.97 -4.74728 0
-418.382 -4.75137 0
-416.797 -4.75282 0
-415.213 -4.75358 0
-413.622 -4.75031 0
-412.039 -4.74983 0
-410.45 -4.74663 0
-408.869 -4.75019 0
-407.287 -4.74578 0
-405.707 -4.74632 0
-404.118 -4.7458 0
-402.536 -4.74564 0
-400.949 -4.74297 0
-399.366 -4.74107 0
-397.784 -4.7397 0
-396.198 -4.74176 0
-394.615 -4.7389 0
-393.03 -4.74379 0
-391.444 -4.73988 0
-389.857 -4.73302 0
-388.272 -4.73327 0
-386.683 -4.73162 0
-385.094 -4.73153 0
-383.512 -4.73147 0
-381.926 -4.72917 0
-380.341 -4.72269 0
-378.756 -4.72088 0
-377.176 -4.71364 0
-375.585 -4.7168 0
-373.998 -4.71918 0
-372.412 -4.71866 0
-370.829 -4.71888 0
-369.243 -4.71554 0
-367.658 -4.71029 0
-366.074 -4.71399 0
-364.486 -4.70896 0
-362.901 -4.7113 0
-361.312 -4.71247 0
-359.728 -4.70826 0
-358.142 -4.70478 0
-356.559 -4.70562 0
-354.975 -4.70913 0
-353.391 -4.70352 0
-351.808 -4.70041 0
-350.22 -4.70737 0
-348.631 -4.70024 0
-347.046 -4.70125 0
-345.462 -4.70292 0
-343.878 -4.70201 0
-342.293 -4.7019 0
-340.707 -4.6905 0
-339.125 -4.69141 0
-337.541 -4.69151 0
-335.955 -4.68776 0
-334.371 -4.68769 0
-332.784 -4.6862 0
-331.195 -4.68371 0
-329.612 -4.68654 0
-328.028 -4.68709 0
-326.443 -4.68533 0
-324.86 -4.68401 0
-323.273 -4.68347 0
-321.688 -4.67352 0
-320.1 -4.67466 0
-318.519 -4.67649 0
-316.934 -4.67856 0
-315.345 -4.67549 0
-313.761 -4.67788 0
-312.175 -4.68161 0
-310.589 -4.68269 0
-309.001 -4.68159 0
-307.42 -4.67668 0
-305.836 -4.6787 0
-304.252 -4.68069 0
-302.661 -4.6734 0
-301.081 -4.67473 0
-299.492 -4.67669 0
-297.909 -4.68176 0
-296.327 -4.6795 0
-294.744 -4.67427 0
-293.154 -4.67103 0
-291.573 -4.67363 0
-289.992 -4.67739 0
-288.408 -4.67973 0
-286.82 -4.67332 0
-285.232 -4.672 0
-283.646 -4.67371 0
-282.061 -4.67788 0
-280.478 -4.66642 0
-278.884 -4.67103 0
-277.299 -4.67418 0
-275.713 -4.67374 0
-274.132 -4.66989 0
-272.549 -4.66542 0
-270.969 -4.66508 0
-269.375 -4.66375 0
-267.79 -4.67278 0
-266.205 -4.66616 0
-264.619 -4.66692 0
-263.038 -4.67228 0
-261.45 -4.6711 0
-259.868 -4.66918 0
-258.284 -4.6659 0
-256.698 -4.66912 0
-255.115 -4.67271 0
-253.528 -4.67318 0
-251.941 -4.66799 0
-250.352 -4.6716 0
-248.772 -4.67502 0
-247.187 -4.67604 0
-245.6 -4.67054 0
-244.011 -4.67609 0
-242.428 -4.67008 0
-240.849 -4.67403 0
-239.26 -4.67298 0
-237.674 -4.67447 0
-236.087 -4.67963 0
-234.505 -4.67534 0
-232.922 -4.67817 0
-231.337 -4.67666 0
-229.753 -4.67699 0
-228.166 -4.67512 0
-226.578 -4.67042 0
-224.995 -4.67403 0
-223.404 -4.67138 0
-221.819 -4.67399 0
-220.237 -4.68078 0
-218.654 -4.68435 0
-217.071 -4.68488 0
-215.485 -4.68248 0
-213.901 -4.68042 0
-212.314 -4.67624 0
-210.727 -4.67741 0
-209.145 -4.68005 0
-207.563 -4.67407 0
-205.98 -4.6756 0
-204.395 -4.68264 0
-202.811 -4.67868 0
-201.223 -4.68822 0
-199.638 -4.67835 0
-198.052 -4.67827 0
-196.47 -4.67575 0
-194.882 -4.67888 0
-193.302 -4.68188 0
-191.72 -4.68389 0
-190.129 -4.68308 0
-188.54 -4.68333 0
-186.962 -4.68093 0
-185.371 -4.67779 0
-183.792 -4.68833 0
-182.207 -4.68473 0
-180.619 -4.68325 0
-179.034 -4.68112 0
-177.451 -4.68031 0
-175.865 -4.68628 0
-174.285 -4.68731 0
-172.701 -4.68284 0
-171.117 -4.68249 0
-169.533 -4.68234 0
-167.944 -4.69023 0
-166.364 -4.68202 0
-164.784 -4.67953 0
-163.204 -4.68296 0
-161.613 -4.68387 0
-160.027 -4.68212 0
-158.444 -4.6856 0
-156.855 -4.6816 0
-155.273 -4.68373 0
-153.69 -4.68606 0
-152.098 -4.6807 0
-150.514 -4.68199 0
-148.933 -4.68608 0
-147.351 -4.68723 0
-145.764 -4.68493 0
-144.178 -4.68634 0
-142.594 -4.68217 0
-141.012 -4.68836 0
-139.425 -4.68592 0
-137.84 -4.68735 0
-136.259 -4.68711 0
-134.669 -4.68379 0
-133.085 -4.68024 0
-131.499 -4.68068 0
-129.909 -4.67509 0
-128.327 -4.67823 0
-126.747 -4.68359 0
-125.16 -4.68522 0
-123.573 -4.69042 0
-121.988 -4.68593 0
-120.407 -4.68786 0
-118.817 -4.68249 0
-117.239 -4.68173 0
-115.656 -4.68806 0
-114.073 -4.68586 0
-112.485 -4.68778 0
-110.899 -4.68535 0
-109.318 -4.68821 0
-107.73 -4.69539 0
-106.147 -4.68734 0
-104.569 -4.68937 0
-102.988 -4.68898 0
-101.404 -4.68995 0
-99.8134 -4.69724 0
-98.2285 -4.69473 0
-96.6458 -4.69393 0
-95.0621 -4.69146 0
-93.4661 -4.69583 0
-91.8889 -4.69096 0
-90.3017 -4.68987 0
-88.7168 -4.68754 0
-87.1303 -4.68824 0
-85.5498 -4.6894 0
-83.966 -4.69305 0
-82.381 -4.6917 0
-80.8015 -4.68929 0
-79.218 -4.68796 0
-77.6268 -4.68567 0
-76.0435 -4.68656 0
-74.4632 -4.68363 0
-72.8806 -4.6792 0
-71.2933 -4.68637 0
-69.7106 -4.69472 0
-68.1222 -4.69004 0
-66.5442 -4.68896 0
-64.962 -4.68435 0
-63.3782 -4.68385 0
-61.788 -4.68636 0
-60.2052 -4.68536 0
-58.6219 -4.68668 0
-57.0355 -4.68021 0
-55.4551 -4.67895 0
-53.8656 -4.68479 0
-52.279 -4.68293 0
-50.6962 -4.68057 0
-49.1127 -4.68387 0
-47.5263 -4.6791 0
-45.9377 -4.67823 0
-44.353 -4.6785 0
-42.7678 -4.68542 0
-41.1869 -4.68367 0
-39.6065 -4.68646 0
-38.0226 -4.68093 0
-36.4389 -4.68492 0
-34.8522 -4.68578 0
-33.27 -4.67928 0
-31.6879 -4.68049 0
-30.0996 -4.6777 0
-28.5151 -4.67662 0
-26.9292 -4.67592 0
-25.3436 -4.68048 0
-23.7584 -4.67692 0
-22.1774 -4.68168 0
-20.5948 -4.68231 0
-19.0124 -4.67663 0
-17.4295 -4.67794 0
-15.8453 -4.67921 0
-14.2585 -4.67547 0
-12.6732 -4.68162 0
-11.0883 -4.67428 0
-9.50527 -4.6701 0
-7.92484 -4.66698 0
-6.33998 -4.67029 0
-4.75627 -4.67205 0
-3.17485 -4.67616 0
-1.58647 -4.67953 0
0 -4.68406 0
-1061.14 87.3024 0
-1061.5 78.0287 0
-1061.87 68.9071 0
-1062.2 60.005 0
-1062.5 51.3587 0
-1062.76 43.0394 0
-1062.97 35.1367 0
-1063.14 27.7135 0
-1063.28 20.8053 0
-1063.37 14.4337 0
-1063.4 8.61933 0
-1063.37 3.37649 0
-1063.29 -1.28741 0
-1063.24 -5.45293 0
-1063.26 -9.32324 0
-1063.24 -12.9735 0
-1063.14 -16.2965 0
-1063 -19.2316 0
-1062.85 -21.781 0
-1062.68 -23.9482 0
-1062.48 -25.7442 0
-1062.25 -27.1858 0
-1061.98 -28.2966 0
-1061.68 -29.1047 0
-1061.33 -29.641 0
-1060.93 -29.9328 0
-1060.47 -30.0068 0
-1059.96 -29.8883 0
-1059.39 -29.5991 0
-1058.76 -29.1581 0
-1058.07 -28.5835 0
-1057.32 -27.8907 0
-1056.52 -27.0973 0
-1055.66 -26.2159 0
-1054.75 -25.2615 0
-1053.78 -24.2429 0
-1052.76 -23.1728 0
-1051.69 -22.0623 0
-1050.58 -20.9188 0
-1049.42 -19.7529 0
-1048.21 -18.5706 0
-1046.97 -17.3807 0
-1045.68 -16.1891 0
-1044.36 -15.003 0
-1043 -13.8257 0
-1041.61 -12.6631 0
-1040.19 -11.5207 0
-1038.74 -10.4005 0
-1037.26 -9.30655 0
-1035.75 -8.24209 0
-1034.22 -7.21033 0
-1032.66 -6.21298 0
-1031.09 -5.25313 0
-1029.49 -4.33037 0
-1027.88 -3.44727 0
-1026.25 -2.60584 0
-1024.6 -1.80644 0
-1022.95 -1.04891 0
-1021.27 -0.33458 0
-1019.59 0.335647 0
-1017.9 0.962873 0
-1016.19 1.54725 0
-1014.48 2.0866 0
-1012.77 2.58491 0
-1011.04 3.03914 0
-1009.32 3.45307 0
-1007.58 3.82432 0
-1005.85 4.15526 0
-1004.11 4.44704 0
-1002.37 4.69925 0
-1000.62 4.91428 0
-998.883 5.09364 0
-997.142 5.23692 0
-995.4 5.34408 0
-993.661 5.41907 0
-991.923 5.46354 0
-990.189 5.47761 0
-988.457 5.46215 0
-986.727 5.41724 0
-985.002 5.34673 0
-983.282 5.25127 0
-981.567 5.13278 0
-979.855 4.99176 0
-978.149 4.8297 0
-976.447 4.64847 0
-974.751 4.44939 0
-973.061 4.23404 0
-971.376 4.00356 0
-969.697 3.75878 0
-968.024 3.50293 0
-966.356 3.23315 0
-964.694 2.95584 0
-963.038 2.66975 0
-961.388 2.37465 0
-959.743 2.07296 0
-958.104 1.76795 0
-956.473 1.4601 0
-954.847 1.1478 0
-953.227 0.835364 0
-951.611 0.522965 0
-950.002 0.20911 0
-948.397 -0.102139 0
-946.797 -0.41106 0
-945.202 -0.718011 0
-943.612 -1.02096 0
-942.026 -1.3183 0
-940.444 -1.6118 0
-938.866 -1.89786 0
-937.292 -2.17611 0
-935.722 -2.44822 0
-934.155 -2.71318 0
-932.591 -2.96989 0
-931.03 -3.21629 0
-929.473 -3.45466 0
-927.918 -3.68189 0
-926.364 -3.90077 0
-924.814 -4.10898 0
-923.265 -4.30689 0
-921.719 -4.49427 0
-920.174 -4.67087 0
-918.63 -4.83673 0
-917.088 -4.99178 0
-915.545 -5.13727 0
-914.004 -5.26978 0
-912.463 -5.39288 0
-910.923 -5.5036 0
-909.383 -5.60499 0
-907.843 -5.69632 0
-906.304 -5.77563 0
-904.764 -5.84725 0
-903.224 -5.90718 0
-901.683 -5.95594 0
-900.142 -5.99624 0
-898.599 -6.02835 0
-897.057 -6.05121 0
-895.514 -6.06223 0
-893.97 -6.0668 0
-892.423 -6.06437 0
-890.877 -6.05305 0
-889.329 -6.03553 0
-887.781 -6.01119 0
-886.232 -5.97718 0
-884.68 -5.93812 0
-883.127 -5.89208 0
-881.574 -5.84207 0
-880.018 -5.78545 0
-878.461 -5.72423 0
-876.901 -5.6577 0
-875.341 -5.58693 0
-873.779 -5.51384 0
-872.215 -5.4352 0
-870.651 -5.35239 0
-869.082 -5.26906 0
-867.516 -5.17877 0
-865.946 -5.08883 0
-864.377 -4.99808 0
-862.804 -4.90321 0
-861.23 -4.8083 0
-859.654 -4.71209 0
-858.078 -4.61427 0
-856.499 -4.5157 0
-854.921 -4.41725 0
-853.341 -4.31762 0
-851.759 -4.21976 0
-850.175 -4.1216 0
-848.592 -4.02311 0
-847.006 -3.92834 0
-845.419 -3.83449 0
-843.831 -3.74046 0
-842.241 -3.64662 0
-840.651 -3.55629 0
-839.059 -3.46656 0
-837.467 -3.37703 0
-835.873 -3.29153 0
-834.281 -3.21052 0
-832.686 -3.13052 0
-831.091 -3.05305 0
-829.495 -2.97647 0
-827.897 -2.90205 0
-826.301 -2.83223 0
-824.704 -2.76575 0
-823.107 -2.70301 0
-821.508 -2.64112 0
-819.91 -2.57966 0
-818.311 -2.52356 0
-816.71 -2.46986 0
-815.11 -2.41951 0
-813.51 -2.37349 0
-811.911 -2.33256 0
-810.311 -2.29379 0
-808.712 -2.25332 0
-807.109 -2.22313 0
-805.509 -2.19009 0
-803.908 -2.16213 0
-802.308 -2.13643 0
-800.707 -2.11532 0
-799.108 -2.09434 0
-797.508 -2.08077 0
-795.909 -2.06491 0
-794.31 -2.05289 0
-792.709 -2.04517 0
-791.11 -2.04005 0
-789.511 -2.0369 0
-787.912 -2.03528 0
-786.313 -2.03608 0
-784.714 -2.0408 0
-783.118 -2.04759 0
-781.522 -2.05621 0
-779.923 -2.06618 0
-778.325 -2.07773 0
-776.729 -2.09095 0
-775.134 -2.10639 0
-773.539 -2.12401 0
-771.947 -2.14542 0
-770.35 -2.16867 0
-768.755 -2.18833 0
-767.161 -2.21113 0
-765.567 -2.23497 0
-763.974 -2.25861 0
-762.384 -2.28686 0
-760.792 -2.31172 0
-759.198 -2.34132 0
-757.608 -2.37267 0
-756.017 -2.40244 0
-754.428 -2.43323 0
-752.836 -2.46517 0
-751.246 -2.4979 0
-749.658 -2.52583 0
-748.069 -2.55653 0
-746.48 -2.58832 0
-744.894 -2.62167 0
-743.307 -2.65559 0
-741.719 -2.68786 0
-740.131 -2.72007 0
-738.544 -2.74807 0
-736.958 -2.78088 0
-735.371 -2.81243 0
-733.787 -2.84638 0
-732.2 -2.87706 0
-730.614 -2.90749 0
-729.03 -2.93553 0
-727.444 -2.96372 0
-725.86 -2.99098 0
-724.278 -3.01841 0
-722.696 -3.04777 0
-721.113 -3.07616 0
-719.53 -3.1019 0
-717.946 -3.12819 0
-716.364 -3.15274 0
-714.781 -3.17593 0
-713.198 -3.19571 0
-711.615 -3.2169 0
-710.034 -3.23808 0
-708.45 -3.25757 0
-706.866 -3.27453 0
-705.286 -3.29442 0
-703.706 -3.31366 0
-702.122 -3.32833 0
-700.541 -3.34315 0
-698.958 -3.35717 0
-697.377 -3.37058 0
-695.797 -3.38219 0
-694.216 -3.39227 0
-692.637 -3.40622 0
-691.053 -3.41561 0
-689.471 -3.42453 0
-687.891 -3.4336 0
-686.309 -3.44157 0
-684.729 -3.44838 0
-683.147 -3.45214 0
-681.567 -3.45529 0
-679.985 -3.45919 0
-678.404 -3.46141 0
-676.822 -3.46677 0
-675.24 -3.46616 0
-673.658 -3.46396 0
-672.077 -3.46596 0
-670.495 -3.46953 0
-668.91 -3.46609 0
-667.328 -3.46451 0
-665.746 -3.45933 0
-664.162 -3.45596 0
-662.578 -3.45311 0
-661 -3.44831 0
-659.417 -3.44112 0
-657.835 -3.43878 0
-656.251 -3.43164 0
-654.667 -3.42511 0
-653.085 -3.41756 0
-651.503 -3.41096 0
-649.919 -3.40561 0
-648.335 -3.39615 0
-646.752 -3.38712 0
-645.167 -3.38121 0
-643.582 -3.37347 0
-641.997 -3.36409 0
-640.41 -3.35342 0
-638.825 -3.34272 0
-637.241 -3.33255 0
-635.657 -3.32525 0
-634.074 -3.31563 0
-632.49 -3.30503 0
-630.905 -3.29715 0
-629.32 -3.28671 0
-627.734 -3.27535 0
-626.149 -3.26785 0
-624.563 -3.25579 0
-622.978 -3.24865 0
-621.392 -3.23522 0
-619.805 -3.22419 0
-618.22 -3.21411 0
-616.632 -3.20176 0
-615.047 -3.19366 0
-613.459 -3.1818 0
-611.875 -3.17566 0
-610.286 -3.1688 0
-608.701 -3.15997 0
-607.112 -3.14987 0
-605.527 -3.14055 0
-603.94 -3.12968 0
-602.351 -3.12482 0
-600.766 -3.11699 0
-599.182 -3.10714 0
-597.594 -3.10071 0
-596.009 -3.097 0
-594.421 -3.08796 0
-592.833 -3.07779 0
-591.247 -3.07192 0
-589.66 -3.06651 0
-588.072 -3.05954 0
-586.484 -3.05308 0
-584.898 -3.0451 0
-583.313 -3.03844 0
-581.723 -3.03542 0
-580.135 -3.03574 0
-578.545 -3.02826 0
-576.96 -3.023 0
-575.377 -3.02022 0
-573.789 -3.01679 0
-572.2 -3.01094 0
-570.613 -3.00864 0
-569.027 -3.00718 0
-567.439 -3.00483 0
-565.85 -3.00304 0
-564.264 -3.00234 0
-562.675 -3.00295 0
-561.088 -3.00304 0
-559.5 -3.00193 0
-557.913 -3.0009 0
-556.324 -2.99938 0
-554.739 -2.99674 0
-553.15 -2.99897 0
-551.565 -2.99659 0
-549.977 -2.99913 0
-548.389 -2.99829 0
-546.803 -3.00082 0
-545.216 -3.00264 0
-543.629 -3.00318 0
-542.041 -3.00691 0
-540.454 -3.00412 0
-538.869 -3.00509 0
-537.283 -3.00751 0
-535.698 -3.01228 0
-534.11 -3.01266 0
-532.525 -3.01115 0
-530.941 -3.01502 0
-529.352 -3.01936 0
-527.765 -3.01994 0
-526.182 -3.02378 0
-524.595 -3.03008 0
-523.008 -3.02586 0
-521.42 -3.03376 0
-519.834 -3.03471 0
-518.246 -3.04012 0
-516.659 -3.04346 0
-515.074 -3.04758 0
-513.489 -3.05284 0
-511.904 -3.05678 0
-510.315 -3.06015 0
-508.731 -3.06004 0
-507.147 -3.06407 0
-505.559 -3.07119 0
-503.975 -3.07563 0
-502.388 -3.07731 0
-500.802 -3.08067 0
-499.214 -3.08641 0
-497.633 -3.09104 0
-496.046 -3.0943 0
-494.46 -3.09393 0
-492.875 -3.09354 0
-491.288 -3.09792 0
-489.703 -3.09935 0
-488.119 -3.10752 0
-486.531 -3.11138 0
-484.95 -3.11889 0
-483.363 -3.12342 0
-481.778 -3.12532 0
-480.193 -3.12759 0
-478.607 -3.13071 0
-477.022 -3.12845 0
-475.434 -3.12882 0
-473.85 -3.13626 0
-472.271 -3.14223 0
-470.68 -3.14517 0
-469.097 -3.14709 0
-467.514 -3.14905 0
-465.927 -3.15068 0
-464.342 -3.15525 0
-462.757 -3.15607 0
-461.172 -3.15702 0
-459.587 -3.16127 0
-458.002 -3.16601 0
-456.418 -3.16346 0
-454.831 -3.16654 0
-453.243 -3.17261 0
-451.658 -3.17202 0
-450.074 -3.16991 0
-448.491 -3.17364 0
-446.907 -3.17664 0
-445.322 -3.17839 0
-443.739 -3.18175 0
-442.153 -3.18624 0
-440.567 -3.1842 0
-438.982 -3.18661 0
-437.4 -3.18479 0
-435.812 -3.1849 0
-434.229 -3.18636 0
-432.644 -3.18819 0
-431.059 -3.18528 0
-429.477 -3.18479 0
-427.89 -3.18679 0
-426.302 -3.18465 0
-424.719 -3.18688 0
-423.138 -3.18235 0
-421.549 -3.18261 0
-419.966 -3.18281 0
-418.379 -3.18654 0
-416.795 -3.18851 0
-415.211 -3.18828 0
-413.622 -3.18576 0
-412.04 -3.1866 0
-410.454 -3.18393 0
-408.87 -3.18756 0
-407.283 -3.18406 0
-405.7 -3.18451 0
-404.117 -3.18235 0
-402.535 -3.17864 0
-400.953 -3.17838 0
-399.368 -3.17683 0
-397.784 -3.1744 0
-396.198 -3.17422 0
-394.61 -3.1782 0
-393.024 -3.1766 0
-391.439 -3.17109 0
-389.855 -3.16697 0
-388.268 -3.16512 0
-386.683 -3.16441 0
-385.097 -3.16761 0
-383.511 -3.16468 0
-381.927 -3.16473 0
-380.342 -3.15943 0
-378.757 -3.15547 0
-377.172 -3.14985 0
-375.586 -3.15173 0
-373.999 -3.15255 0
-372.417 -3.1516 0
-370.826 -3.15294 0
-369.24 -3.14945 0
-367.654 -3.1509 0
-366.068 -3.14924 0
-364.484 -3.14488 0
-362.897 -3.1444 0
-361.314 -3.14652 0
-359.727 -3.14485 0
-358.145 -3.14181 0
-356.561 -3.14273 0
-354.974 -3.14238 0
-353.387 -3.14079 0
-351.804 -3.13668 0
-350.219 -3.13778 0
-348.63 -3.13692 0
-347.048 -3.13592 0
-345.462 -3.13183 0
-343.876 -3.13635 0
-342.29 -3.13319 0
-340.705 -3.12683 0
-339.119 -3.1263 0
-337.538 -3.12735 0
-335.953 -3.12134 0
-334.368 -3.12017 0
-332.783 -3.12001 0
-331.199 -3.11866 0
-329.617 -3.1209 0
-328.03 -3.11879 0
-326.443 -3.12074 0
-324.861 -3.1183 0
-323.27 -3.11377 0
-321.686 -3.10994 0
-320.1 -3.11044 0
-318.515 -3.1103 0
-316.929 -3.11168 0
-315.347 -3.11282 0
-313.76 -3.11558 0
-312.175 -3.11358 0
-310.591 -3.11531 0
-309.003 -3.11509 0
-307.416 -3.11525 0
-305.838 -3.11661 0
-304.251 -3.1123 0
-302.664 -3.11144 0
-301.08 -3.10942 0
-299.497 -3.1114 0
-297.907 -3.11251 0
-296.324 -3.1138 0
-294.741 -3.11024 0
-293.157 -3.11013 0
-291.574 -3.10761 0
-289.986 -3.10668 0
-288.401 -3.10902 0
-286.815 -3.10438 0
-285.228 -3.10731 0
-283.645 -3.10682 0
-282.059 -3.11251 0
-280.473 -3.10526 0
-278.888 -3.10487 0
-277.301 -3.10467 0
-275.714 -3.10811 0
-274.127 -3.10484 0
-272.545 -3.10176 0
-270.964 -3.09939 0
-269.377 -3.1018 0
-267.792 -3.10441 0
-266.203 -3.10237 0
-264.621 -3.10593 0
-263.035 -3.10827 0
-261.452 -3.10684 0
-259.866 -3.10367 0
-258.283 -3.1052 0
-256.698 -3.10445 0
-255.111 -3.10481 0
-253.527 -3.10761 0
-251.939 -3.10422 0
-250.358 -3.10661 0
-248.774 -3.1091 0
-247.186 -3.1093 0
-245.603 -3.1061 0
-244.016 -3.10628 0
-242.431 -3.10801 0
-240.845 -3.10653 0
-239.263 -3.11147 0
-237.677 -3.10802 0
-236.088 -3.11214 0
-234.503 -3.11138 0
-232.92 -3.11402 0
-231.336 -3.11381 0
-229.752 -3.10914 0
-228.163 -3.10918 0
-226.578 -3.10719 0
-224.995 -3.10839 0
-223.407 -3.10838 0
-221.826 -3.10933 0
-220.242 -3.11834 0
-218.655 -3.1166 0
-217.071 -3.11909 0
-215.482 -3.11422 0
-213.898 -3.11002 0
-212.312 -3.11055 0
-210.731 -3.11483 0
-209.148 -3.11387 0
-207.564 -3.11352 0
-205.982 -3.11462 0
-204.396 -3.11598 0
-202.812 -3.11662 0
-201.229 -3.1201 0
-199.641 -3.11551 0
-198.058 -3.11334 0
-196.472 -3.11182 0
-194.887 -3.11604 0
-193.3 -3.11931 0
-191.713 -3.11552 0
-190.128 -3.11577 0
-188.544 -3.11712 0
-186.958 -3.11904 0
-185.375 -3.11665 0
-183.791 -3.12055 0
-182.204 -3.11739 0
-180.619 -3.11771 0
-179.035 -3.11566 0
-177.453 -3.11622 0
-175.866 -3.11926 0
-174.282 -3.12052 0
-172.7 -3.11881 0
-171.114 -3.11919 0
-169.533 -3.11778 0
-167.949 -3.12296 0
-166.365 -3.1189 0
-164.783 -3.11943 0
-163.196 -3.1209 0
-161.611 -3.11997 0
-160.029 -3.11734 0
-158.442 -3.11718 0
-156.856 -3.11732 0
-155.269 -3.11879 0
-153.686 -3.11925 0
-152.102 -3.11682 0
-150.516 -3.11812 0
-148.934 -3.12347 0
-147.348 -3.12061 0
-145.76 -3.11933 0
-144.178 -3.1241 0
-142.592 -3.11989 0
-141.008 -3.121 0
-139.42 -3.11866 0
-137.834 -3.12678 0
-136.249 -3.1201 0
-134.668 -3.12159 0
-133.081 -3.11776 0
-131.498 -3.11694 0
-129.914 -3.11219 0
-128.333 -3.11511 0
-126.748 -3.11783 0
-125.161 -3.12074 0
-123.575 -3.11728 0
-121.992 -3.12517 0
-120.41 -3.12505 0
-118.825 -3.12245 0
-117.239 -3.12098 0
-115.657 -3.12048 0
-114.073 -3.1211 0
-112.487 -3.12203 0
-110.899 -3.12146 0
-109.315 -3.12235 0
-107.732 -3.12701 0
-106.147 -3.1268 0
-104.565 -3.12627 0
-102.981 -3.12498 0
-101.398 -3.1222 0
-99.8178 -3.13046 0
-98.2305 -3.13087 0
-96.6421 -3.13047 0
-95.0609 -3.12745 0
-93.4745 -3.12691 0
-91.8894 -3.12711 0
-90.3023 -3.12621 0
-88.7215 -3.1229 0
-87.1374 -3.12567 0
-85.5534 -3.12793 0
-83.9686 -3.12881 0
-82.3867 -3.12781 0
-80.7985 -3.12462 0
-79.2119 -3.12301 0
-77.631 -3.12572 0
-76.0442 -3.12035 0
-74.459 -3.12126 0
-72.8788 -3.11889 0
-71.2965 -3.12137 0
-69.7094 -3.12577 0
-68.1248 -3.12604 0
-66.5417 -3.12215 0
-64.959 -3.11878 0
-63.3731 -3.11782 0
-61.7881 -3.1207 0
-60.2033 -3.12335 0
-58.621 -3.12288 0
-57.0368 -3.11703 0
-55.4497 -3.11484 0
-53.8687 -3.11787 0
-52.2807 -3.11876 0
-50.6962 -3.11917 0
-49.1101 -3.11178 0
-47.527 -3.11079 0
-45.9401 -3.11231 0
-44.3527 -3.11623 0
-42.7715 -3.11984 0
-41.1874 -3.12187 0
-39.607 -3.1189 0
-38.0229 -3.11746 0
-36.4382 -3.12019 0
-34.8511 -3.11976 0
-33.2674 -3.12084 0
-31.6855 -3.11524 0
-30.1012 -3.11538 0
-28.5175 -3.10767 0
-26.9323 -3.11216 0
-25.3478 -3.11254 0
-23.7643 -3.11291 0
-22.1817 -3.11466 0
-20.597 -3.1165 0
-19.0105 -3.1117 0
-17.4252 -3.11121 0
-15.8409 -3.11314 0
-14.2566 -3.1125 0
-12.6723 -3.1151 0
-11.0914 -3.1126 0
-9.50519 -3.10693 0
-7.92268 -3.1038 0
-6.3412 -3.10444 0
-4.75909 -3.1102 0
-3.17346 -3.10843 0
-1.58619 -3.11129 0
0 -3.1162 0
-1070.61 88.1758 0
-1070.58 78.6607 0
-1070.71 69.5265 0
-1070.79 60.6322 0
-1070.79 52.0074 0
-1070.69 43.7064 0
-1070.51 35.8053 0
-1070.24 28.3682 0
-1069.91 21.4461 0
-1069.51 15.0679 0
-1069.05 9.25382 0
-1068.54 4.0043 0
-1068.03 -0.71277 0
-1067.59 -5.01002 0
-1067.2 -8.9537 0
-1066.83 -12.5639 0
-1066.41 -15.8541 0
-1065.93 -18.7829 0
-1065.41 -21.3324 0
-1064.87 -23.4997 0
-1064.31 -25.2955 0
-1063.73 -26.7297 0
-1063.15 -27.8291 0
-1062.55 -28.6184 0
-1061.93 -29.128 0
-1061.28 -29.3886 0
-1060.61 -29.4242 0
-1059.91 -29.2622 0
-1059.17 -28.9269 0
-1058.39 -28.4378 0
-1057.57 -27.8143 0
-1056.71 -27.0731 0
-1055.8 -26.2301 0
-1054.86 -25.3005 0
-1053.87 -24.2975 0
-1052.84 -23.232 0
-1051.77 -22.1162 0
-1050.66 -20.9612 0
-1049.52 -19.776 0
-1048.34 -18.5685 0
-1047.12 -17.3466 0
-1045.86 -16.1196 0
-1044.57 -14.8937 0
-1043.26 -13.6724 0
-1041.91 -12.4632 0
-1040.53 -11.2706 0
-1039.12 -10.0992 0
-1037.69 -8.95232 0
-1036.24 -7.83361 0
-1034.76 -6.74635 0
-1033.26 -5.69231 0
-1031.73 -4.67402 0
-1030.19 -3.69503 0
-1028.63 -2.7552 0
-1027.06 -1.85587 0
-1025.47 -0.999162 0
-1023.86 -0.187002 0
-1022.24 0.582239 0
-1020.61 1.30822 0
-1018.97 1.9884 0
-1017.32 2.62425 0
-1015.66 3.21723 0
-1013.99 3.76323 0
-1012.31 4.26759 0
-1010.63 4.72774 0
-1008.94 5.14547 0
-1007.24 5.52115 0
-1005.55 5.85398 0
-1003.84 6.14745 0
-1002.14 6.40171 0
-1000.43 6.61703 0
-998.727 6.79643 0
-997.019 6.93884 0
-995.31 7.04658 0
-993.602 7.12064 0
-991.893 7.16306 0
-990.187 7.17444 0
-988.483 7.15593 0
-986.781 7.10915 0
-985.08 7.03392 0
-983.383 6.93542 0
-981.688 6.81212 0
-979.997 6.66728 0
-978.311 6.50126 0
-976.627 6.31625 0
-974.947 6.11125 0
-973.272 5.8908 0
-971.602 5.65501 0
-969.935 5.40609 0
-968.273 5.14411 0
-966.616 4.87043 0
-964.963 4.58747 0
-963.315 4.29571 0
-961.671 3.9952 0
-960.032 3.69019 0
-958.399 3.37905 0
-956.771 3.06574 0
-955.147 2.74798 0
-953.526 2.43111 0
-951.912 2.1131 0
-950.301 1.79506 0
-948.695 1.4798 0
-947.093 1.16635 0
-945.495 0.856321 0