<?xml version="1.0"?>
<VTKFile type="StructuredGrid"  version="0.1" byte_order="LittleEndian" compressor="vtkZLibDataCompressor">
  <StructuredGrid WholeExtent="0 700 0 30 0 0">
    <Piece Extent="0 700 0 30 0 0">
      <PointData Vectors="Velocity">
        <DataArray type="Float32" Name="Velocity" NumberOfComponents="3" format="ascii">
-1065.34 442.387 0
-1065.46 417.844 0
-1065.62 393.384 0
-1065.86 369.19 0
-1066.18 345.286 0
-1066.52 321.755 0
-1066.92 298.592 0
-1067.4 275.872 0
-1067.86 253.64 0
-1068.36 231.823 0
-1068.91 210.497 0
-1069.49 189.742 0
-1070.05 169.49 0
-1070.64 149.805 0
-1071.24 130.72 0
-1071.82 112.19 0
-1072.36 94.252 0
-1072.91 76.8769 0
-1073.44 60.0326 0
-1073.89 43.7313 0
-1074.35 27.9632 0
-1074.81 12.7198 0
-1075.21 -1.96056 0
-1075.6 -16.1373 0
-1075.96 -29.8138 0
-1076.29 -42.987 0
-1076.61 -55.7304 0
-1076.91 -67.958 0
-1077.18 -79.7194 0
-1077.43 -91.0108 0
-1077.65 -101.874 0
-1077.85 -112.316 0
-1078.06 -122.287 0
-1078.24 -131.874 0
-1078.41 -141.019 0
-1078.56 -149.778 0
-1078.67 -158.142 0
-1078.76 -166.077 0
-1078.85 -173.653 0
-1078.92 -180.835 0
-1078.95 -187.662 0
-1078.98 -194.128 0
-1078.94 -200.21 0
-1078.9 -205.971 0
-1078.85 -211.382 0
-1078.74 -216.481 0
-1078.61 -221.235 0
-1078.47 -225.678 0
-1078.31 -229.821 0
-1078.11 -233.652 0
-1077.88 -237.188 0
-1077.63 -240.446 0
-1077.39 -243.416 0
-1077.09 -246.098 0
-1076.76 -248.501 0
-1076.4 -250.659 0
-1076 -252.568 0
-1075.59 -254.233 0
-1075.15 -255.646 0
-1074.69 -256.835 0
-1074.17 -257.801 0
-1073.67 -258.535 0
-1073.12 -259.065 0
-1072.54 -259.383 0
-1071.91 -259.493 0
-1071.24 -259.415 0
-1070.57 -259.151 0
-1069.88 -258.718 0
-1069.15 -258.105 0
-1068.38 -257.314 0
-1067.58 -256.36 0
-1066.77 -255.252 0
-1065.92 -254.001 0
-1065.06 -252.604 0
-1064.15 -251.059 0
-1063.21 -249.381 0
-1062.24 -247.589 0
-1061.24 -245.664 0
-1060.23 -243.611 0
-1059.2 -241.441 0
-1058.14 -239.16 0
-1057.04 -236.796 0
-1055.92 -234.334 0
-1054.78 -231.747 0
-1053.61 -229.092 0
-1052.44 -226.324 0
-1051.23 -223.504 0
-1050 -220.588 0
-1048.73 -217.59 0
-1047.44 -214.529 0
-1046.13 -211.404 0
-1044.79 -208.237 0
-1043.41 -205.002 0
-1042.03 -201.701 0
-1040.63 -198.334 0
-1039.2 -194.943 0
-1037.77 -191.518 0
-1036.33 -188.035 0
-1034.84 -184.529 0
-1033.33 -180.988 0
-1031.79 -177.402 0
-1030.24 -173.834 0
-1028.69 -170.214 0
-1027.12 -166.547 0
-1025.53 -162.881 0
-1023.93 -159.207 0
-1022.31 -155.502 0
-1020.68 -151.777 0
-1019.01 -148.064 0
-1017.36 -144.349 0
-1015.67 -140.606 0
-1013.98 -136.853 0
-1012.27 -133.119 0
-1010.54 -129.399 0
-1008.82 -125.682 0
-1007.08 -121.932 0
-1005.29 -118.214 0
-1003.5 -114.537 0
-1001.73 -110.821 0
-999.923 -107.119 0
-998.115 -103.462 0
-996.271 -99.7946 0
-994.435 -96.1652 0
-992.592 -92.5318 0
-990.743 -88.939 0
-988.889 -85.3422 0
-987.013 -81.7736 0
-985.102 -78.2787 0
-983.234 -74.7892 0
-981.339 -71.304 0
-979.429 -67.8531 0
-977.542 -64.4277 0
-975.62 -61.0325 0
-973.696 -57.6961 0
-971.771 -54.3592 0
-969.845 -51.0686 0
-967.917 -47.8173 0
-965.955 -44.5683 0
-964.001 -41.3705 0
-962.045 -38.2228 0
-960.111 -35.1039 0
-958.144 -32.0033 0
-956.157 -28.9679 0
-954.187 -25.9479 0
-952.213 -22.9837 0
-950.244 -20.0302 0
-948.246 -17.1163 0
-946.272 -14.2691 0
-944.28 -11.4474 0
-942.288 -8.68089 0
-940.29 -5.92685 0
-938.268 -3.23483 0
-936.278 -0.559987 0
-934.285 2.03592 0
-932.301 4.61066 0
-930.297 7.16473 0
-928.296 9.63598 0
-926.283 12.0933 0
-924.268 14.5312 0
-922.251 16.885 0
-920.246 19.1982 0
-918.229 21.4694 0
-916.245 23.6894 0
-914.232 25.855 0
-912.217 28.0143 0
-910.215 30.1307 0
-908.185 32.2145 0
-906.193 34.2286 0
-904.172 36.192 0
-902.147 38.1504 0
-900.1 40.0338 0
-898.092 41.8561 0
-896.068 43.6621 0
-894.066 45.4101 0
-892.046 47.1135 0
-890.033 48.7691 0
-888.034 50.3982 0
-886.027 51.9951 0
-884.025 53.5653 0
-882.026 55.0429 0
-880.028 56.5222 0
-878.019 57.9458 0
-876.016 59.3112 0
-874.033 60.6411 0
-872.044 61.9375 0
-870.058 63.1829 0
-868.09 64.3911 0
-866.109 65.5857 0
-864.131 66.7365 0
-862.172 67.8211 0
-860.172 68.8933 0
-858.194 69.906 0
-856.234 70.8696 0
-854.262 71.7992 0
-852.31 72.713 0
-850.342 73.564 0
-848.384 74.3627 0
-846.422 75.1271 0
-844.484 75.8626 0
-842.542 76.559 0
-840.606 77.2233 0
-838.676 77.8671 0
-836.732 78.4579 0
-834.804 79.0332 0
-832.878 79.5477 0
-830.956 80.0523 0
-829.039 80.508 0
-827.12 80.9475 0
-825.204 81.3363 0
-823.302 81.6927 0
-821.404 82.0414 0
-819.494 82.3345 0
-817.619 82.5857 0
-815.721 82.8182 0
-813.844 83.0376 0
-811.971 83.2134 0
-810.102 83.3604 0
-808.233 83.4936 0
-806.369 83.5968 0
-804.498 83.6522 0
-802.638 83.708 0
-800.787 83.7117 0
-798.938 83.6852 0
-797.103 83.652 0
-795.265 83.5733 0
-793.421 83.4784 0
-791.591 83.3401 0
-789.754 83.2007 0
-787.933 83.0618 0
-786.127 82.881 0
-784.313 82.6549 0
-782.508 82.4276 0
-780.707 82.1784 0
-778.914 81.9179 0
-777.123 81.6229 0
-775.328 81.3261 0
-773.524 80.982 0
-771.743 80.6284 0
-769.961 80.2684 0
-768.192 79.9081 0
-766.415 79.5089 0
-764.643 79.0755 0
-762.88 78.641 0
-761.116 78.2097 0
-759.349 77.7546 0
-757.611 77.2708 0
-755.878 76.7939 0
-754.133 76.289 0
-752.381 75.7773 0
-750.648 75.2564 0
-748.91 74.715 0
-747.192 74.1616 0
-745.464 73.6069 0
-743.732 73.0316 0
-742.011 72.4572 0
-740.289 71.8679 0
-738.577 71.2758 0
-736.867 70.6738 0
-735.154 70.0552 0
-733.45 69.4369 0
-731.751 68.8055 0
-730.044 68.174 0
-728.343 67.5326 0
-726.642 66.8881 0
-724.956 66.2243 0
-723.259 65.5666 0
-721.576 64.8995 0
-719.884 64.2172 0
-718.21 63.5315 0
-716.53 62.8398 0
-714.849 62.1558 0
-713.178 61.4784 0
-711.5 60.7905 0
-709.83 60.0702 0
-708.174 59.3726 0
-706.518 58.6647 0
-704.855 57.9651 0
-703.201 57.2596 0
-701.539 56.5457 0
-699.889 55.8423 0
-698.249 55.1224 0
-696.601 54.401 0
-694.961 53.6942 0
-693.315 52.989 0
-691.677 52.2785 0
-690.035 51.5692 0
-688.395 50.8614 0
-686.764 50.1478 0
-685.13 49.4405 0
-683.495 48.7294 0
-681.863 48.0227 0
-680.229 47.3152 0
-678.605 46.6098 0
-676.984 45.9135 0
-675.363 45.2228 0
-673.746 44.5316 0
-672.13 43.8402 0
-670.506 43.1546 0
-668.881 42.4688 0
-667.263 41.7966 0
-665.647 41.1233 0
-664.042 40.4386 0
-662.435 39.7746 0
-660.822 39.114 0
-659.212 38.4484 0
-657.613 37.7864 0
-656.003 37.1316 0
-654.391 36.4938 0
-652.788 35.8594 0
-651.188 35.2265 0
-649.591 34.5986 0
-647.995 33.9824 0
-646.393 33.3702 0
-644.791 32.7668 0
-643.192 32.1807 0
-641.594 31.5827 0
-639.994 30.99 0
-638.398 30.4057 0
-636.797 29.8391 0
-635.203 29.2804 0
-633.612 28.7133 0
-632.023 28.159 0
-630.425 27.6205 0
-628.835 27.0798 0
-627.238 26.5462 0
-625.639 26.0258 0
-624.048 25.5142 0
-622.447 25.0089 0
-620.852 24.4967 0
-619.253 24.0086 0
-617.67 23.5265 0
-616.079 23.0509 0
-614.48 22.5721 0
-612.891 22.1173 0
-611.299 21.663 0
-609.693 21.2138 0
-608.096 20.7875 0
-606.501 20.3517 0
-604.906 19.9225 0
-603.308 19.5198 0
-601.712 19.1129 0
-600.109 18.7102 0
-598.51 18.3276 0
-596.914 17.9374 0
-595.306 17.5457 0
-593.699 17.1838 0
-592.098 16.8188 0
-590.508 16.4702 0
-588.903 16.1398 0
-587.289 15.7961 0
-585.671 15.4696 0
-584.062 15.1342 0
-582.455 14.806 0
-580.851 14.5099 0
-579.244 14.2005 0
-577.627 13.9046 0
-576.012 13.608 0
-574.404 13.3159 0
-572.796 13.0357 0
-571.17 12.7657 0
-569.564 12.5191 0
-567.943 12.2476 0
-566.324 12.0065 0
-564.701 11.7753 0
-563.089 11.5299 0
-561.46 11.3053 0
-559.838 11.0823 0
-558.213 10.8551 0
-556.586 10.6352 0
-554.955 10.4382 0
-553.339 10.2414 0
-551.709 10.0384 0
-550.084 9.85526 0
-548.458 9.67252 0
-546.836 9.4968 0
-545.197 9.33242 0
-543.559 9.17158 0
-541.922 9.00296 0
-540.289 8.83561 0
-538.646 8.68397 0
-537.015 8.54318 0
-535.382 8.40948 0
-533.743 8.26545 0
-532.094 8.13285 0
-530.458 8.01449 0
-528.812 7.8955 0
-527.173 7.76632 0
-525.531 7.65682 0
-523.9 7.55652 0
-522.247 7.45579 0
-520.596 7.35265 0
-518.955 7.25686 0
-517.318 7.15614 0
-515.682 7.06586 0
-514.032 6.98668 0
-512.374 6.90218 0
-510.721 6.8326 0
-509.069 6.758 0
-507.408 6.67622 0
-505.762 6.62978 0
-504.104 6.5658 0
-502.451 6.52295 0
-500.794 6.46598 0
-499.132 6.40155 0
-497.476 6.34777 0
-495.821 6.30749 0
-494.16 6.26331 0
-492.5 6.22656 0
-490.845 6.19801 0
-489.189 6.16575 0
-487.521 6.14245 0
-485.84 6.09847 0
-484.18 6.07685 0
-482.504 6.05477 0
-480.838 6.04502 0
-479.166 6.02751 0
-477.489 6.01612 0
-475.819 6.00128 0
-474.142 5.97737 0
-472.464 5.9803 0
-470.793 5.972 0
-469.119 5.9693 0
-467.43 5.95928 0
-465.753 5.94937 0
-464.069 5.94657 0
-462.393 5.94475 0
-460.704 5.95024 0
-459.016 5.94596 0
-457.341 5.95294 0
-455.649 5.96849 0
-453.956 5.96651 0
-452.272 5.96669 0
-450.578 5.9747 0
-448.896 5.97204 0
-447.214 5.98064 0
-445.534 5.9761 0
-443.84 5.98729 0
-442.144 5.9938 0
-440.453 6.00744 0
-438.755 6.00314 0
-437.06 6.00794 0
-435.367 6.00906 0
-433.668 6.02105 0
-431.975 6.02975 0
-430.275 6.05037 0
-428.574 6.05284 0
-426.853 6.0541 0
-425.159 6.04225 0
-423.457 6.03809 0
-421.748 6.03764 0
-420.043 6.03485 0
-418.347 6.03421 0
-416.647 6.03213 0
-414.94 6.03793 0
-413.232 6.02097 0
-411.523 6.0243 0
-409.815 6.02382 0
-408.109 6.00269 0
-406.402 5.99651 0
-404.707 5.98936 0
-403.005 5.98409 0
-401.295 5.97098 0
-399.584 5.9542 0
-397.883 5.91671 0
-396.18 5.9095 0
-394.473 5.90695 0
-392.77 5.8824 0
-391.06 5.83995 0
-389.366 5.81116 0
-387.646 5.791 0
-385.946 5.77047 0
-384.242 5.73466 0
-382.541 5.6994 0
-380.831 5.66174 0
-379.12 5.61971 0
-377.41 5.59341 0
-375.706 5.54237 0
-373.994 5.51861 0
-372.287 5.46172 0
-370.581 5.41857 0
-368.873 5.36822 0
-367.163 5.3203 0
-365.459 5.2739 0
-363.747 5.21572 0
-362.052 5.15226 0
-360.347 5.08359 0
-358.635 5.0364 0
-356.927 4.97416 0
-355.217 4.90442 0
-353.531 4.84876 0
-351.821 4.79443 0
-350.095 4.72094 0
-348.4 4.64327 0
-346.676 4.58189 0
-344.976 4.50157 0
-343.263 4.43282 0
-341.576 4.3509 0
-339.867 4.27294 0
-338.156 4.1944 0
-336.446 4.12653 0
-334.734 4.02213 0
-333.032 3.94637 0
-331.315 3.85848 0
-329.605 3.76836 0
-327.896 3.66785 0
-326.19 3.57731 0
-324.486 3.48292 0
-322.783 3.39677 0
-321.082 3.30437 0
-319.347 3.1939 0
-317.653 3.10205 0
-315.953 2.99832 0
-314.245 2.90546 0
-312.531 2.80369 0
-310.832 2.68934 0
-309.139 2.57926 0
-307.429 2.45516 0
-305.728 2.34487 0
-304.016 2.23764 0
-302.315 2.13122 0
-300.603 2.01226 0
-298.905 1.90081 0
-297.205 1.78228 0
-295.494 1.67305 0
-293.8 1.54832 0
-292.105 1.42144 0
-290.399 1.29807 0
-288.687 1.17241 0
-286.982 1.05133 0
-285.28 0.930796 0
-283.586 0.801354 0
-281.884 0.668645 0
-280.19 0.53625 0
-278.488 0.401228 0
-276.778 0.26632 0
-275.07 0.139575 0
-273.372 0.00250719 0
-271.674 -0.12886 0
-269.979 -0.269791 0
-268.277 -0.401879 0
-266.58 -0.533893 0
-264.883 -0.674393 0
-263.193 -0.827898 0
-261.502 -0.957715 0
-259.807 -1.07586 0
-258.116 -1.2354 0
-256.428 -1.37413 0
-254.737 -1.51774 0
-253.048 -1.65841 0
-251.351 -1.79185 0
-249.667 -1.93782 0
-247.978 -2.06427 0
-246.289 -2.21406 0
-244.596 -2.34997 0
-242.911 -2.49388 0
-241.237 -2.63058 0
-239.56 -2.7628 0
-237.876 -2.90802 0
-236.193 -3.05262 0
-234.508 -3.20234 0
-232.828 -3.33269 0
-231.148 -3.47873 0
-229.457 -3.60555 0
-227.78 -3.74149 0
-226.098 -3.8791 0
-224.423 -4.0129 0
-222.747 -4.15541 0
-221.077 -4.29172 0
-219.403 -4.41235 0
-217.736 -4.54418 0
-216.055 -4.6826 0
-214.385 -4.82029 0
-212.706 -4.94577 0
-211.037 -5.08324 0
-209.367 -5.20812 0
-207.697 -5.3408 0
-206.024 -5.4762 0
-204.352 -5.62222 0
-202.696 -5.75152 0
-201.026 -5.86626 0
-199.367 -5.99562 0
-197.688 -6.11143 0
-196.013 -6.24106 0
-194.349 -6.36635 0
-192.692 -6.49451 0
-191.023 -6.61717 0
-189.361 -6.74031 0
-187.702 -6.84513 0
-186.036 -6.96559 0
-184.371 -7.06781 0
-182.707 -7.19192 0
-181.048 -7.31777 0
-179.4 -7.42136 0
-177.719 -7.52253 0
-176.051 -7.64139 0
-174.395 -7.75747 0
-172.745 -7.86145 0
-171.077 -7.96937 0
-169.416 -8.06398 0
-167.759 -8.18283 0
-166.106 -8.27614 0
-164.441 -8.38131 0
-162.772 -8.47923 0
-161.116 -8.57275 0
-159.461 -8.6723 0
-157.787 -8.75339 0
-156.124 -8.84453 0
-154.461 -8.95035 0
-152.811 -9.03038 0
-151.141 -9.13409 0
-149.488 -9.22278 0
-147.823 -9.31262 0
-146.166 -9.38992 0
-144.499 -9.47623 0
-142.834 -9.57308 0
-141.174 -9.65119 0
-139.51 -9.7409 0
-137.848 -9.81454 0
-136.177 -9.90301 0
-134.513 -9.97237 0
-132.855 -10.0503 0
-131.186 -10.1243 0
-129.549 -10.2137 0
-127.88 -10.2848 0
-126.223 -10.365 0
-124.567 -10.4263 0
-122.918 -10.4959 0
-121.248 -10.5633 0
-119.599 -10.6299 0
-117.936 -10.6754 0
-116.277 -10.7532 0
-114.614 -10.8165 0
-112.962 -10.8873 0
-111.303 -10.9518 0
-109.635 -11.0025 0
-107.988 -11.0599 0
-106.334 -11.1108 0
-104.664 -11.1542 0
-103 -11.211 0
-101.35 -11.2754 0
-99.6919 -11.3014 0
-98.034 -11.3611 0
-96.3807 -11.4214 0
-94.7195 -11.4617 0
-93.0571 -11.5093 0
-91.3969 -11.5439 0
-89.7371 -11.5846 0
-88.0821 -11.6097 0
-86.4232 -11.6521 0
-84.7684 -11.6843 0
-83.1001 -11.7194 0
-81.4437 -11.7625 0
-79.7752 -11.8012 0
-78.1179 -11.8327 0
-76.456 -11.8666 0
-74.8213 -11.9012 0
-73.1366 -11.9329 0
-71.4739 -11.9605 0
-69.8207 -11.9904 0
-68.1579 -12.0281 0
-66.5009 -12.0665 0
-64.826 -12.0931 0
-63.1666 -12.1207 0
-61.5074 -12.1494 0
-59.8506 -12.1877 0
-58.1878 -12.2162 0
-56.4995 -12.24 0
-54.8496 -12.2746 0
-53.1905 -12.2848 0
-51.5262 -12.3126 0
-49.8668 -12.3198 0
-48.2085 -12.3232 0
-46.5424 -12.3525 0
-44.8818 -12.386 0
-43.2196 -12.3964 0
-41.5551 -12.4247 0
-39.8873 -12.4419 0
-38.2272 -12.4676 0
-36.5778 -12.4666 0
-34.9149 -12.4755 0
-33.2549 -12.4962 0
-31.5882 -12.508 0
-29.9319 -12.5176 0
-28.262 -12.5319 0
-26.6082 -12.5443 0
-24.9438 -12.556 0
-23.2729 -12.5681 0
-21.6043 -12.5751 0
-19.9476 -12.601 0
-18.2795 -12.6082 0
-16.6207 -12.6054 0
-14.96 -12.6087 0
-13.2987 -12.6181 0
-11.6412 -12.6166 0
-9.98326 -12.6264 0
-8.3229 -12.6309 0
-6.65124 -12.633 0
-4.99192 -12.6267 0
-3.32586 -12.6349 0
-1.65906 -12.6352 0
0 -12.6524 0
-1089.9 442.516 0
-1089.88 417.91 0
-1089.88 393.438 0
-1089.88 369.221 0
-1089.85 345.296 0
-1089.85 321.733 0
-1089.85 298.547 0
-1089.86 275.812 0
-1089.89 253.55 0
-1089.92 231.707 0
-1089.95 210.376 0
-1089.98 189.608 0
-1090.01 169.349 0
-1090.03 149.661 0
-1090.04 130.573 0
-1090.05 112.062 0
-1090.04 94.1276 0
-1090.03 76.7472 0
-1089.99 59.9235 0
-1089.92 43.6376 0
-1089.85 27.8758 0
-1089.76 12.6541 0
-1089.66 -2.01771 0
-1089.53 -16.1784 0
-1089.4 -29.8381 0
-1089.25 -43.0155 0
-1089.08 -55.7275 0
-1088.9 -67.9589 0
-1088.72 -79.7033 0
-1088.53 -90.9931 0
-1088.32 -101.86 0
-1088.11 -112.278 0
-1087.88 -122.271 0
-1087.64 -131.833 0
-1087.39 -140.982 0
-1087.14 -149.721 0
-1086.85 -158.057 0
-1086.57 -165.998 0
-1086.25 -173.561 0
-1085.94 -180.732 0
-1085.61 -187.552 0
-1085.26 -193.982 0
-1084.9 -200.064 0
-1084.52 -205.814 0
-1084.11 -211.208 0
-1083.69 -216.274 0
-1083.25 -221.031 0
-1082.79 -225.452 0
-1082.31 -229.56 0
-1081.8 -233.376 0
-1081.29 -236.89 0
-1080.76 -240.136 0
-1080.21 -243.083 0
-1079.65 -245.743 0
-1079.05 -248.122 0
-1078.44 -250.255 0
-1077.81 -252.144 0
-1077.16 -253.78 0
-1076.47 -255.177 0
-1075.78 -256.337 0
-1075.05 -257.286 0
-1074.31 -257.989 0
-1073.53 -258.484 0
-1072.74 -258.79 0
-1071.94 -258.869 0
-1071.1 -258.76 0
-1070.24 -258.475 0
-1069.37 -258.019 0
-1068.45 -257.377 0
-1067.52 -256.556 0
-1066.57 -255.58 0
-1065.59 -254.455 0
-1064.61 -253.167 0
-1063.6 -251.743 0
-1062.55 -250.168 0
-1061.48 -248.463 0
-1060.39 -246.639 0
-1059.27 -244.698 0
-1058.13 -242.621 0
-1056.98 -240.436 0
-1055.82 -238.133 0
-1054.64 -235.731 0
-1053.41 -233.245 0
-1052.18 -230.64 0
-1050.93 -227.95 0
-1049.66 -225.17 0
-1048.36 -222.335 0
-1047.05 -219.391 0
-1045.71 -216.367 0
-1044.36 -213.274 0
-1042.98 -210.147 0
-1041.59 -206.936 0
-1040.16 -203.687 0
-1038.73 -200.372 0
-1037.27 -196.991 0
-1035.8 -193.585 0
-1034.32 -190.13 0
-1032.82 -186.647 0
-1031.32 -183.107 0
-1029.78 -179.541 0
-1028.23 -175.952 0
-1026.66 -172.35 0
-1025.07 -168.704 0
-1023.47 -165.04 0
-1021.88 -161.358 0
-1020.25 -157.661 0
-1018.62 -153.929 0
-1016.96 -150.205 0
-1015.3 -146.476 0
-1013.63 -142.734 0
-1011.94 -138.981 0
-1010.23 -135.227 0
-1008.53 -131.484 0
-1006.82 -127.734 0
-1005.09 -124.005 0
-1003.35 -120.253 0
-1001.58 -116.513 0
-999.821 -112.807 0
-998.028 -109.094 0
-996.241 -105.388 0
-994.445 -101.7 0
-992.64 -98.0512 0
-990.824 -94.3886 0
-988.997 -90.7519 0
-987.154 -87.1534 0
-985.312 -83.5486 0
-983.476 -79.9837 0
-981.62 -76.4603 0
-979.757 -72.9635 0
-977.881 -69.4766 0
-976.018 -66.0164 0
-974.13 -62.591 0
-972.254 -59.1914 0
-970.352 -55.8259 0
-968.463 -52.4948 0
-966.557 -49.1948 0
-964.655 -45.9337 0
-962.747 -42.6789 0
-960.846 -39.4741 0
-958.912 -36.3293 0
-956.976 -33.2076 0
-955.055 -30.1024 0
-953.128 -27.0515 0
-951.199 -24.0268 0
-949.265 -21.0528 0
-947.322 -18.1099 0
-945.383 -15.1985 0
-943.433 -12.3433 0
-941.478 -9.52168 0
-939.528 -6.73082 0
-937.577 -3.98379 0
-935.626 -1.27563 0
-933.655 1.38249 0
-931.709 3.98198 0
-929.751 6.57278 0
-927.796 9.12047 0
-925.831 11.5873 0
-923.861 14.0514 0
-921.884 16.4786 0
-919.926 18.8469 0
-917.972 21.1582 0
-915.999 23.4272 0
-914.034 25.6423 0
-912.057 27.8192 0
-910.086 29.975 0
-908.11 32.0808 0
-906.133 34.1705 0
-904.175 36.192 0
-902.189 38.172 0
-900.219 40.1225 0
-898.245 42.0078 0
-896.261 43.8265 0
-894.293 45.628 0
-892.314 47.3894 0
-890.342 49.0812 0
-888.385 50.7312 0
-886.422 52.3551 0
-884.477 53.9595 0
-882.513 55.5093 0
-880.541 57.018 0
-878.586 58.4788 0
-876.636 59.8966 0
-874.666 61.253 0
-872.713 62.5949 0
-870.777 63.8906 0
-868.84 65.1389 0
-866.884 66.3446 0
-864.948 67.5212 0
-863.001 68.6778 0
-861.075 69.77 0
-859.139 70.826 0
-857.204 71.8402 0
-855.284 72.8105 0
-853.363 73.7314 0
-851.433 74.6355 0
-849.525 75.4903 0
-847.612 76.2888 0
-845.68 77.0545 0
-843.767 77.7834 0
-841.871 78.4725 0
-839.968 79.1377 0
-838.062 79.7791 0
-836.151 80.3828 0
-834.254 80.9243 0
-832.369 81.451 0
-830.477 81.9489 0
-828.591 82.4091 0
-826.709 82.8367 0
-824.834 83.2242 0
-822.954 83.5782 0
-821.081 83.9106 0
-819.225 84.2066 0
-817.365 84.4627 0
-815.5 84.6992 0
-813.653 84.8961 0
-811.804 85.0802 0
-809.957 85.2216 0
-808.113 85.3394 0
-806.273 85.438 0
-804.446 85.5041 0
-802.614 85.5391 0
-800.789 85.5489 0
-798.975 85.5243 0
-797.147 85.4788 0
-795.337 85.3939 0
-793.527 85.3016 0
-791.71 85.1701 0
-789.909 85.0266 0
-788.117 84.8662 0
-786.324 84.6797 0
-784.539 84.4665 0
-782.753 84.2327 0
-780.963 83.9782 0
-779.183 83.7067 0
-777.414 83.418 0
-775.638 83.1082 0
-773.864 82.7667 0
-772.099 82.4147 0
-770.33 82.0481 0
-768.571 81.6778 0
-766.823 81.2816 0
-765.068 80.8521 0
-763.317 80.4109 0
-761.565 79.9642 0
-759.819 79.5021 0
-758.091 79.0192 0
-756.359 78.5355 0
-754.632 78.0354 0
-752.905 77.5127 0
-751.179 76.989 0
-749.452 76.4377 0
-747.735 75.8904 0
-746.02 75.3355 0
-744.3 74.7674 0
-742.594 74.1796 0
-740.883 73.5971 0
-739.173 73.0015 0
-737.472 72.3871 0
-735.769 71.7739 0
-734.068 71.1443 0
-732.373 70.5205 0
-730.677 69.8841 0
-728.986 69.2362 0
-727.301 68.5891 0
-725.614 67.9245 0
-723.924 67.2535 0
-722.24 66.5835 0
-720.56 65.9021 0
-718.886 65.2163 0
-717.213 64.5224 0
-715.541 63.8309 0
-713.87 63.15 0
-712.211 62.4616 0
-710.548 61.7451 0
-708.879 61.0393 0
-707.217 60.329 0
-705.561 59.6249 0
-703.901 58.922 0
-702.257 58.2027 0
-700.611 57.4938 0
-698.959 56.7781 0
-697.31 56.0604 0
-695.666 55.3468 0
-694.024 54.6397 0
-692.389 53.9276 0
-690.75 53.222 0
-689.101 52.4998 0
-687.464 51.7894 0
-685.833 51.0815 0
-684.2 50.3657 0
-682.563 49.6542 0
-680.928 48.9471 0
-679.302 48.2353 0
-677.678 47.5365 0
-676.052 46.8456 0
-674.431 46.1524 0
-672.812 45.4674 0
-671.185 44.7783 0
-669.563 44.0985 0
-667.943 43.4176 0
-666.326 42.7321 0
-664.717 42.054 0
-663.096 41.3868 0
-661.486 40.7207 0
-659.873 40.0603 0
-658.262 39.3988 0
-656.648 38.7528 0
-655.036 38.1113 0
-653.424 37.4658 0
-651.822 36.843 0
-650.213 36.2079 0
-648.604 35.595 0
-646.999 34.9805 0
-645.394 34.3761 0
-643.795 33.7831 0
-642.188 33.1871 0
-640.585 32.5968 0
-638.979 32.0145 0
-637.369 31.4425 0
-635.761 30.8782 0
-634.165 30.3177 0
-632.563 29.7677 0
-630.964 29.2238 0
-629.366 28.6805 0
-627.762 28.1432 0
-626.161 27.626 0
-624.556 27.1167 0
-622.959 26.6062 0
-621.345 26.1052 0
-619.747 25.6007 0
-618.153 25.1201 0
-616.55 24.6482 0
-614.949 24.1794 0
-613.339 23.7164 0
-611.736 23.264 0
-610.14 22.8205 0
-608.529 22.3842 0
-606.925 21.9479 0
-605.32 21.5288 0
-603.717 21.1166 0
-602.111 20.7118 0
-600.505 20.3154 0
-598.894 19.9275 0
-597.293 19.5413 0
-595.683 19.1549 0
-594.071 18.7827 0
-592.458 18.424 0
-590.852 18.0812 0
-589.24 17.7411 0
-587.621 17.41 0
-586 17.0723 0
-584.385 16.7417 0
-582.768 16.4227 0
-581.151 16.1125 0
-579.54 15.8129 0
-577.922 15.5118 0
-576.302 15.2137 0
-574.681 14.9341 0
-573.052 14.6529 0
-571.433 14.374 0
-569.817 14.1163 0
-568.195 13.8559 0
-566.572 13.6138 0
-564.95 13.3849 0
-563.312 13.1422 0
-561.687 12.9193 0
-560.055 12.6945 0
-558.432 12.4713 0
-556.785 12.2588 0
-555.161 12.0552 0
-553.534 11.8519 0
-551.904 11.6558 0
-550.267 11.4758 0
-548.64 11.2935 0
-546.996 11.1263 0
-545.358 10.959 0
-543.723 10.7933 0
-542.081 10.6339 0
-540.439 10.468 0
-538.8 10.3138 0
-537.161 10.1728 0
-535.516 10.0374 0
-533.875 9.89909 0
-532.231 9.76476 0
-530.584 9.64261 0
-528.943 9.521 0
-527.299 9.40212 0
-525.647 9.2946 0
-524 9.18401 0
-522.35 9.08464 0
-520.702 8.99148 0
-519.052 8.88679 0
-517.406 8.79512 0
-515.756 8.70248 0
-514.112 8.61914 0
-512.46 8.54733 0
-510.803 8.47224 0
-509.143 8.39995 0
-507.479 8.32864 0
-505.82 8.26766 0
-504.157 8.21243 0
-502.498 8.15619 0
-500.845 8.10034 0
-499.19 8.04221 0
-497.528 7.9887 0
-495.868 7.94946 0
-494.205 7.90832 0
-492.532 7.87187 0
-490.873 7.84308 0
-489.21 7.81586 0
-487.539 7.79149 0
-485.873 7.75268 0
-484.2 7.73196 0
-482.529 7.71273 0
-480.861 7.69559 0
-479.185 7.68411 0
-477.502 7.67315 0
-475.833 7.65636 0
-474.148 7.63966 0
-472.466 7.63535 0
-470.793 7.62971 0
-469.117 7.62657 0
-467.446 7.62767 0
-465.762 7.61661 0
-464.074 7.61557 0
-462.393 7.62224 0
-460.713 7.62253 0
-459.021 7.62109 0
-457.335 7.62463 0
-455.644 7.62791 0
-453.951 7.62458 0
-452.262 7.6374 0
-450.578 7.63652 0
-448.892 7.63608 0
-447.202 7.64353 0
-445.521 7.64852 0
-443.83 7.65939 0
-442.141 7.67133 0
-440.445 7.68051 0
-438.754 7.68189 0
-437.061 7.68075 0
-435.359 7.68987 0
-433.663 7.69408 0
-431.964 7.71072 0
-430.26 7.71998 0
-428.565 7.73031 0
-426.864 7.72892 0
-425.163 7.71822 0
-423.459 7.72095 0
-421.749 7.71546 0
-420.044 7.71576 0
-418.343 7.71322 0
-416.642 7.71361 0
-414.942 7.71896 0
-413.234 7.70801 0
-411.526 7.70705 0
-409.814 7.70845 0
-408.119 7.69402 0
-406.422 7.68624 0
-404.71 7.66922 0
-403.018 7.65812 0
-401.317 7.64864 0
-399.62 7.62722 0
-397.902 7.60258 0
-396.194 7.59227 0
-394.489 7.58102 0
-392.799 7.56086 0
-391.091 7.52917 0
-389.386 7.49927 0
-387.678 7.46916 0
-385.972 7.44299 0
-384.274 7.40782 0
-382.568 7.3721 0
-380.866 7.34949 0
-379.159 7.31349 0
-377.453 7.27338 0
-375.746 7.23221 0
-374.04 7.19514 0
-372.332 7.15457 0
-370.624 7.0944 0
-368.917 7.05457 0
-367.218 7.00959 0
-365.511 6.95326 0
-363.802 6.89925 0
-362.105 6.82683 0
-360.401 6.77358 0
-358.691 6.71709 0
-356.994 6.65894 0
-355.289 6.59756 0
-353.581 6.53266 0
-351.878 6.47971 0
-350.175 6.40825 0
-348.463 6.33458 0
-346.755 6.25835 0
-345.046 6.19432 0
-343.341 6.11305 0
-341.637 6.03467 0
-339.928 5.96155 0
-338.226 5.87889 0
-336.526 5.79974 0
-334.821 5.71121 0
-333.116 5.63507 0
-331.414 5.54155 0
-329.697 5.45687 0
-327.992 5.36615 0
-326.282 5.25567 0
-324.573 5.16598 0
-322.868 5.08008 0
-321.166 4.99582 0
-319.469 4.88535 0
-317.765 4.78698 0
-316.053 4.69108 0
-314.344 4.58478 0
-312.645 4.48185 0
-310.946 4.37614 0
-309.239 4.26104 0
-307.537 4.13995 0
-305.829 4.0245 0
-304.128 3.92508 0
-302.426 3.80698 0
-300.727 3.69938 0
-299.026 3.57519 0
-297.318 3.46488 0
-295.622 3.3461 0
-293.919 3.22136 0
-292.22 3.10272 0
-290.514 2.98078 0
-288.806 2.85731 0
-287.094 2.7327 0
-285.406 2.60378 0
-283.712 2.47511 0
-282.014 2.34487 0
-280.314 2.20865 0
-278.613 2.07828 0
-276.912 1.95594 0
-275.209 1.8157 0
-273.506 1.68301 0
-271.803 1.54432 0
-270.108 1.40832 0
-268.409 1.2807 0
-266.716 1.14341 0
-265.022 1.00005 0
-263.331 0.855658 0
-261.632 0.723103 0
-259.945 0.585895 0
-258.261 0.440171 0
-256.569 0.298235 0
-254.875 0.157224 0
-253.186 0.0159854 0
-251.494 -0.117728 0
-249.807 -0.257733 0
-248.116 -0.407676 0
-246.425 -0.538566 0
-244.745 -0.687074 0
-243.061 -0.831773 0
-241.378 -0.969474 0
-239.691 -1.10191 0
-238.019 -1.24542 0
-236.336 -1.39061 0
-234.648 -1.53579 0
-232.959 -1.66982 0
-231.277 -1.81067 0
-229.6 -1.94085 0
-227.917 -2.08012 0
-226.24 -2.22379 0
-224.563 -2.35695 0
-222.886 -2.49152 0
-221.207 -2.62789 0
-219.531 -2.75854 0
-217.863 -2.885 0
-216.192 -3.02759 0
-214.516 -3.16645 0
-212.838 -3.29551 0
-211.17 -3.4281 0
-209.495 -3.55283 0
-207.826 -3.69006 0
-206.159 -3.82718 0
-204.492 -3.96953 0
-202.821 -4.09377 0
-201.153 -4.21434 0
-199.488 -4.34156 0
-197.815 -4.45803 0
-196.148 -4.59445 0
-194.48 -4.71511 0
-192.819 -4.8442 0
-191.154 -4.96201 0
-189.485 -5.07976 0
-187.824 -5.19341 0
-186.158 -5.30521 0
-184.484 -5.42002 0
-182.824 -5.53604 0
-181.162 -5.66307 0
-179.493 -5.77063 0
-177.831 -5.87015 0
-176.17 -5.9901 0
-174.507 -6.10824 0
-172.845 -6.21256 0
-171.184 -6.31999 0
-169.528 -6.41402 0
-167.861 -6.52706 0
-166.198 -6.62201 0
-164.538 -6.72446 0
-162.87 -6.83002 0
-161.211 -6.92125 0
-159.542 -7.01908 0
-157.886 -7.10202 0
-156.23 -7.19166 0
-154.563 -7.28934 0
-152.906 -7.38811 0
-151.248 -7.47439 0
-149.585 -7.56285 0
-147.91 -7.65691 0
-146.255 -7.73956 0
-144.586 -7.82812 0
-142.928 -7.90962 0
-141.259 -7.99864 0
-139.594 -8.08262 0
-137.921 -8.15945 0
-136.263 -8.24058 0
-134.594 -8.32204 0
-132.928 -8.39983 0
-131.274 -8.48252 0
-129.611 -8.55908 0
-127.957 -8.63739 0
-126.302 -8.70761 0
-124.641 -8.78181 0
-122.977 -8.84451 0
-121.322 -8.91561 0
-119.658 -8.98005 0
-118.002 -9.03684 0
-116.342 -9.10438 0
-114.68 -9.16306 0
-113.015 -9.22121 0
-111.353 -9.29818 0
-109.703 -9.35273 0
-108.047 -9.40897 0
-106.38 -9.45463 0
-104.713 -9.50115 0
-103.061 -9.56652 0
-101.391 -9.62418 0
-99.7383 -9.65916 0
-98.0833 -9.71 0
-96.4246 -9.77199 0
-94.7574 -9.82053 0
-93.0949 -9.85268 0
-91.4321 -9.88728 0
-89.785 -9.92218 0
-88.1252 -9.96922 0
-86.4732 -9.98874 0
-84.8066 -10.0308 0
-83.1442 -10.068 0
-81.4739 -10.1059 0
-79.81 -10.1501 0
-78.1441 -10.181 0
-76.4853 -10.2213 0
-74.8226 -10.2597 0
-73.1637 -10.2806 0
-71.5003 -10.3096 0
-69.8501 -10.3412 0
-68.1917 -10.3754 0
-66.5306 -10.4092 0
-64.857 -10.4342 0
-63.2052 -10.464 0
-61.5442 -10.5002 0
-59.8802 -10.5292 0
-58.1987 -10.5524 0
-56.532 -10.5838 0
-54.8688 -10.6086 0
-53.2042 -10.6325 0
-51.5393 -10.6512 0
-49.8788 -10.6666 0
-48.2245 -10.6812 0
-46.5696 -10.7002 0
-44.9111 -10.7279 0
-43.2353 -10.7491 0
-41.5757 -10.7654 0
-39.9097 -10.7943 0
-38.2484 -10.7986 0
-36.5852 -10.8173 0
-34.9225 -10.8358 0
-33.2614 -10.8488 0
-31.5886 -10.8628 0
-29.9353 -10.873 0
-28.2735 -10.8892 0
-26.6146 -10.893 0
-24.9479 -10.9068 0
-23.2814 -10.9161 0
-21.6354 -10.921 0
-19.9551 -10.9362 0
-18.2827 -10.9375 0
-16.6222 -10.9521 0
-14.9683 -10.9619 0
-13.3112 -10.9665 0
-11.6441 -10.9712 0
-9.98298 -10.967 0
-8.31255 -10.9755 0
-6.65369 -10.9717 0
-4.98989 -10.9792 0
-3.33052 -10.9824 0
-1.66396 -10.9849 0
0 -10.9952 0
-1114.63 442.9 0
-1114.32 418.165 0
-1114.07 393.7 0
-1113.78 369.493 0
-1113.44 345.568 0
-1113.08 322.013 0
-1112.69 298.827 0
-1112.28 276.088 0
-1111.87 253.806 0
-1111.43 231.972 0
-1110.96 210.658 0
-1110.48 189.877 0
-1109.97 169.636 0
-1109.44 149.957 0
-1108.88 130.864 0
-1108.33 112.358 0
-1107.76 94.4369 0
-1107.19 77.067 0
-1106.6 60.2492 0
-1106.01 43.9852 0
-1105.41 28.2286 0
-1104.79 13.0189 0
-1104.16 -1.65431 0
-1103.54 -15.8028 0
-1102.92 -29.4558 0
-1102.29 -42.6333 0
-1101.65 -55.3327 0
-1101 -67.5638 0
-1100.36 -79.3136 0
-1099.71 -90.5852 0
-1099.06 -101.456 0
-1098.42 -111.858 0
-1097.75 -121.837 0
-1097.1 -131.398 0
-1096.43 -140.544 0
-1095.77 -149.277 0
-1095.1 -157.605 0
-1094.42 -165.534 0
-1093.74 -173.086 0
-1093.04 -180.268 0
-1092.33 -187.068 0
-1091.63 -193.493 0
-1090.91 -199.556 0
-1090.18 -205.288 0
-1089.43 -210.673 0
-1088.67 -215.736 0
-1087.92 -220.464 0
-1087.14 -224.874 0
-1086.35 -228.974 0
-1085.57 -232.773 0
-1084.76 -236.28 0
-1083.95 -239.502 0
-1083.11 -242.434 0
-1082.27 -245.069 0
-1081.42 -247.44 0
-1080.53 -249.557 0
-1079.65 -251.421 0
-1078.76 -253.047 0
-1077.84 -254.43 0
-1076.91 -255.565 0
-1075.96 -256.491 0
-1074.99 -257.186 0
-1074.01 -257.666 0
-1073.03 -257.939 0
-1072.01 -258.005 0
-1070.99 -257.88 0
-1069.94 -257.58 0
-1068.89 -257.088 0
-1067.8 -256.432 0
-1066.7 -255.59 0
-1065.59 -254.613 0
-1064.46 -253.464 0
-1063.31 -252.158 0
-1062.14 -250.704 0
-1060.96 -249.111 0
-1059.78 -247.387 0
-1058.56 -245.538 0
-1057.33 -243.581 0
-1056.07 -241.486 0
-1054.8 -239.282 0
-1053.52 -236.964 0
-1052.22 -234.534 0
-1050.92 -232.033 0
-1049.59 -229.416 0
-1048.25 -226.7 0
-1046.89 -223.906 0
-1045.51 -221.042 0
-1044.11 -218.079 0
-1042.71 -215.042 0
-1041.29 -211.948 0
-1039.86 -208.782 0
-1038.4 -205.562 0
-1036.93 -202.29 0
-1035.43 -198.949 0
-1033.93 -195.568 0
-1032.42 -192.139 0
-1030.9 -188.667 0
-1029.36 -185.162 0
-1027.8 -181.617 0
-1026.23 -178.05 0
-1024.66 -174.439 0
-1023.06 -170.81 0
-1021.45 -167.155 0
-1019.84 -163.483 0
-1018.21 -159.792 0
-1016.58 -156.072 0
-1014.92 -152.334 0
-1013.27 -148.593 0
-1011.59 -144.844 0
-1009.91 -141.096 0
-1008.22 -137.335 0
-1006.51 -133.565 0
-1004.8 -129.819 0
-1003.09 -126.058 0
-1001.36 -122.296 0
-999.624 -118.548 0
-997.872 -114.809 0
-996.12 -111.076 0
-994.354 -107.358 0
-992.57 -103.642 0
-990.791 -99.9548 0
-988.991 -96.2779 0
-987.191 -92.6125 0
-985.393 -88.9656 0
-983.579 -85.3524 0
-981.77 -81.7605 0
-979.943 -78.1959 0
-978.111 -74.6456 0
-976.267 -71.1566 0
-974.43 -67.6574 0
-972.58 -64.2004 0
-970.737 -60.7573 0
-968.867 -57.3661 0
-967.01 -53.9757 0
-965.142 -50.6481 0
-963.28 -47.3373 0
-961.408 -44.0635 0
-959.536 -40.8119 0
-957.668 -37.6059 0