<?xml version="1.0"?>
<VTKFile type="StructuredGrid"  version="0.1" byte_order="LittleEndian" compressor="vtkZLibDataCompressor">
  <StructuredGrid WholeExtent="0 700 0 30 0 0">
    <Piece Extent="0 700 0 30 0 0">
      <PointData Vectors="Velocity">
        <DataArray type="Float32" Name="Velocity" NumberOfComponents="3" format="ascii">
-1039.52 79.5782 0
-1040.04 70.7756 0
-1040.6 62.1042 0
-1041.18 53.6477 0
-1041.79 45.4621 0
-1042.45 37.6317 0
-1043.13 30.2325 0
-1043.83 23.3104 0
-1044.52 16.8903 0
-1045.18 10.9908 0
-1045.79 5.63201 0
-1046.35 0.831713 0
-1046.81 -3.41719 0
-1047.13 -7.20894 0
-1047.3 -10.7345 0
-1047.55 -14.0234 0
-1047.8 -16.9759 0
-1048.04 -19.5517 0
-1048.25 -21.754 0
-1048.43 -23.5926 0
-1048.56 -25.084 0
-1048.64 -26.2502 0
-1048.65 -27.1168 0
-1048.59 -27.7137 0
-1048.45 -28.0678 0
-1048.23 -28.2073 0
-1047.93 -28.155 0
-1047.55 -27.9328 0
-1047.09 -27.5612 0
-1046.55 -27.0588 0
-1045.93 -26.4414 0
-1045.24 -25.7259 0
-1044.48 -24.9252 0
-1043.65 -24.0535 0
-1042.76 -23.1224 0
-1041.8 -22.1425 0
-1040.78 -21.1229 0
-1039.71 -20.0747 0
-1038.58 -19.0069 0
-1037.4 -17.9252 0
-1036.17 -16.8381 0
-1034.9 -15.7516 0
-1033.58 -14.6718 0
-1032.23 -13.6028 0
-1030.83 -12.5505 0
-1029.4 -11.5198 0
-1027.94 -10.5122 0
-1026.45 -9.53172 0
-1024.93 -8.58164 0
-1023.38 -7.66348 0
-1021.81 -6.78241 0
-1020.22 -5.93694 0
-1018.6 -5.12979 0
-1016.97 -4.36097 0
-1015.32 -3.63391 0
-1013.66 -2.94688 0
-1011.98 -2.3017 0
-1010.29 -1.69645 0
-1008.59 -1.13516 0
-1006.88 -0.614046 0
-1005.17 -0.135311 0
-1003.44 0.302266 0
-1001.71 0.699879 0
-999.981 1.05655 0
-998.244 1.37405 0
-996.503 1.6542 0
-994.76 1.89658 0
-993.018 2.10341 0
-991.276 2.27497 0
-989.536 2.41133 0
-987.796 2.51523 0
-986.059 2.58719 0
-984.323 2.62823 0
-982.591 2.64115 0
-980.864 2.62657 0
-979.142 2.58426 0
-977.424 2.51932 0
-975.71 2.43001 0
-974.002 2.31709 0
-972.3 2.18437 0
-970.606 2.03504 0
-968.914 1.86511 0
-967.231 1.67913 0
-965.555 1.47682 0
-963.885 1.26331 0
-962.223 1.03675 0
-960.567 0.798743 0
-958.918 0.552187 0
-957.276 0.296277 0
-955.64 0.0330578 0
-954.011 -0.237316 0
-952.391 -0.50975 0
-950.777 -0.788402 0
-949.168 -1.06675 0
-947.566 -1.34935 0
-945.97 -1.63091 0
-944.381 -1.91379 0
-942.797 -2.1927 0
-941.221 -2.47111 0
-939.649 -2.74558 0
-938.082 -3.01635 0
-936.519 -3.28025 0
-934.961 -3.54244 0
-933.408 -3.79804 0
-931.858 -4.04429 0
-930.315 -4.28656 0
-928.775 -4.51903 0
-927.238 -4.74401 0
-925.705 -4.96079 0
-924.174 -5.16818 0
-922.647 -5.36472 0
-921.121 -5.55425 0
-919.598 -5.73364 0
-918.077 -5.90224 0
-916.557 -6.06203 0
-915.038 -6.21097 0
-913.522 -6.34903 0
-912.007 -6.47733 0
-910.492 -6.5954 0
-908.976 -6.70462 0
-907.461 -6.80312 0
-905.947 -6.89315 0
-904.434 -6.97024 0
-902.92 -7.03795 0
-901.405 -7.09627 0
-899.891 -7.14727 0
-898.375 -7.18924 0
-896.859 -7.22037 0
-895.343 -7.24126 0
-893.824 -7.25632 0
-892.305 -7.26155 0
-890.784 -7.25965 0
-889.263 -7.2508 0
-887.737 -7.23478 0
-886.212 -7.21391 0
-884.686 -7.18187 0
-883.158 -7.14572 0
-881.628 -7.10692 0
-880.098 -7.05716 0
-878.566 -7.00419 0
-877.03 -6.94804 0
-875.493 -6.88608 0
-873.955 -6.81836 0
-872.412 -6.7506 0
-870.873 -6.6781 0
-869.329 -6.60233 0
-867.783 -6.52538 0
-866.237 -6.44288 0
-864.687 -6.35906 0
-863.136 -6.27615 0
-861.583 -6.18812 0
-860.027 -6.10198 0
-858.47 -6.01295 0
-856.912 -5.92365 0
-855.354 -5.83654 0
-853.791 -5.74518 0
-852.228 -5.65606 0
-850.665 -5.56768 0
-849.098 -5.47987 0
-847.532 -5.39321 0
-845.965 -5.30683 0
-844.394 -5.22202 0
-842.826 -5.13632 0
-841.256 -5.05398 0
-839.68 -4.97251 0
-838.104 -4.89428 0
-836.531 -4.81711 0
-834.954 -4.74129 0
-833.377 -4.66954 0
-831.798 -4.59955 0
-830.221 -4.5344 0
-828.641 -4.4706 0
-827.062 -4.40838 0
-825.484 -4.3465 0
-823.901 -4.29099 0
-822.319 -4.23669 0
-820.738 -4.18427 0
-819.157 -4.13865 0
-817.574 -4.09482 0
-815.991 -4.05281 0
-814.408 -4.01188 0
-812.827 -3.97423 0
-811.246 -3.93962 0
-809.663 -3.91114 0
-808.081 -3.88332 0
-806.498 -3.85927 0
-804.916 -3.83661 0
-803.334 -3.81586 0
-801.752 -3.79854 0
-800.169 -3.78468 0
-798.587 -3.77287 0
-797.006 -3.76323 0
-795.425 -3.75565 0
-793.841 -3.75348 0
-792.261 -3.75237 0
-790.682 -3.75256 0
-789.102 -3.75531 0
-787.524 -3.75921 0
-785.944 -3.76438 0
-784.366 -3.77208 0
-782.788 -3.78296 0
-781.209 -3.79971 0
-779.631 -3.81092 0
-778.053 -3.82384 0
-776.477 -3.84215 0
-774.902 -3.86021 0
-773.329 -3.88116 0
-771.755 -3.90234 0
-770.18 -3.92566 0
-768.606 -3.94626 0
-767.033 -3.96818 0
-765.46 -3.99445 0
-763.888 -4.01966 0
-762.316 -4.04495 0
-760.748 -4.07322 0
-759.176 -4.09716 0
-757.607 -4.12712 0
-756.037 -4.15452 0
-754.467 -4.18534 0
-752.895 -4.21276 0
-751.326 -4.24272 0
-749.76 -4.2698 0
-748.19 -4.29496 0
-746.625 -4.32539 0
-745.059 -4.35333 0
-743.492 -4.38111 0
-741.926 -4.4118 0
-740.362 -4.43598 0
-738.797 -4.46482 0
-737.232 -4.48894 0
-735.668 -4.51599 0
-734.104 -4.54253 0
-732.541 -4.56701 0
-730.977 -4.59439 0
-729.413 -4.61944 0
-727.849 -4.64363 0
-726.289 -4.66338 0
-724.726 -4.68477 0
-723.165 -4.70656 0
-721.602 -4.72879 0
-720.041 -4.74371 0
-718.478 -4.76409 0
-716.917 -4.78215 0
-715.356 -4.79707 0
-713.797 -4.81081 0
-712.235 -4.82445 0
-710.671 -4.83671 0
-709.108 -4.85168 0
-707.549 -4.86568 0
-705.989 -4.87927 0
-704.426 -4.88621 0
-702.864 -4.89529 0
-701.302 -4.90495 0
-699.743 -4.91357 0
-698.179 -4.91814 0
-696.617 -4.92531 0
-695.057 -4.93357 0
-693.496 -4.93691 0
-691.933 -4.93952 0
-690.368 -4.94517 0
-688.808 -4.94866 0
-687.248 -4.95173 0
-685.685 -4.95124 0
-684.123 -4.95386 0
-682.562 -4.95434 0
-681.001 -4.95167 0
-679.439 -4.94832 0
-677.879 -4.94423 0
-676.317 -4.94548 0
-674.755 -4.94259 0
-673.191 -4.93887 0
-671.628 -4.93435 0
-670.065 -4.92476 0
-668.503 -4.91722 0
-666.938 -4.91384 0
-665.374 -4.90504 0
-663.81 -4.89771 0
-662.244 -4.89228 0
-660.679 -4.88826 0
-659.117 -4.88213 0
-657.554 -4.87286 0
-655.99 -4.86416 0
-654.425 -4.85331 0
-652.858 -4.84665 0
-651.293 -4.83613 0
-649.727 -4.82804 0
-648.162 -4.81921 0
-646.599 -4.8103 0
-645.035 -4.80223 0
-643.471 -4.79414 0
-641.904 -4.7841 0
-640.341 -4.77548 0
-638.773 -4.76109 0
-637.204 -4.75111 0
-635.64 -4.7439 0
-634.074 -4.73413 0
-632.506 -4.72557 0
-630.94 -4.71857 0
-629.377 -4.7077 0
-627.807 -4.69898 0
-626.238 -4.6878 0
-624.671 -4.6812 0
-623.104 -4.67222 0
-621.54 -4.66339 0
-619.974 -4.65548 0
-618.407 -4.6472 0
-616.838 -4.63529 0
-615.268 -4.62958 0
-613.701 -4.62308 0
-612.133 -4.61507 0
-610.569 -4.60733 0
-608.999 -4.60338 0
-607.433 -4.59443 0
-605.867 -4.59276 0
-604.299 -4.5901 0
-602.732 -4.57916 0
-601.163 -4.57719 0
-599.593 -4.57048 0
-598.026 -4.56431 0
-596.457 -4.55909 0
-594.888 -4.55546 0
-593.323 -4.55296 0
-591.754 -4.54404 0
-590.188 -4.54156 0
-588.622 -4.53975 0
-587.056 -4.54007 0
-585.492 -4.5378 0
-583.924 -4.5338 0
-582.353 -4.53213 0
-580.784 -4.52865 0
-579.214 -4.52637 0
-577.648 -4.52578 0
-576.082 -4.52401 0
-574.516 -4.52376 0
-572.946 -4.52306 0
-571.38 -4.5228 0
-569.812 -4.52538 0
-568.242 -4.52777 0
-566.676 -4.52026 0
-565.108 -4.52042 0
-563.542 -4.52297 0
-561.976 -4.52472 0
-560.41 -4.52614 0
-558.84 -4.52559 0
-557.272 -4.52796 0
-555.706 -4.52894 0
-554.138 -4.53138 0
-552.573 -4.53193 0
-551.003 -4.53513 0
-549.44 -4.53836 0
-547.873 -4.54214 0
-546.303 -4.54057 0
-544.736 -4.54028 0
-543.169 -4.54695 0
-541.601 -4.54832 0
-540.036 -4.55411 0
-538.473 -4.55927 0
-536.908 -4.56267 0
-535.338 -4.56036 0
-533.77 -4.56049 0
-532.204 -4.56493 0
-530.636 -4.56836 0
-529.069 -4.57245 0
-527.506 -4.57781 0
-525.938 -4.57638 0
-524.373 -4.58324 0
-522.809 -4.58709 0
-521.245 -4.58788 0
-519.676 -4.5919 0
-518.115 -4.59223 0
-516.545 -4.59351 0
-514.982 -4.59496 0
-513.416 -4.60287 0
-511.849 -4.60507 0
-510.289 -4.60421 0
-508.721 -4.61079 0
-507.152 -4.61369 0
-505.584 -4.61488 0
-504.021 -4.62051 0
-502.456 -4.62277 0
-500.891 -4.62436 0
-499.324 -4.62367 0
-497.759 -4.62701 0
-496.196 -4.62912 0
-494.627 -4.62949 0
-493.061 -4.62921 0
-491.495 -4.63245 0
-489.928 -4.63639 0
-488.365 -4.63699 0
-486.799 -4.64249 0
-485.238 -4.64738 0
-483.673 -4.6523 0
-482.103 -4.64955 0
-480.537 -4.65051 0
-478.973 -4.65176 0
-477.41 -4.6539 0
-475.844 -4.65367 0
-474.279 -4.65047 0
-472.715 -4.65317 0
-471.15 -4.65405 0
-469.582 -4.65553 0
-468.015 -4.65195 0
-466.446 -4.65649 0
-464.882 -4.65609 0
-463.319 -4.65476 0
-461.758 -4.65367 0
-460.187 -4.65484 0
-458.622 -4.65808 0
-457.053 -4.66028 0
-455.49 -4.66055 0
-453.921 -4.66181 0
-452.353 -4.66112 0
-450.79 -4.663 0
-449.227 -4.66421 0
-447.664 -4.66691 0
-446.096 -4.66472 0
-444.531 -4.66541 0
-442.964 -4.66218 0
-441.399 -4.66077 0
-439.834 -4.66229 0
-438.263 -4.66096 0
-436.702 -4.65755 0
-435.135 -4.6623 0
-433.572 -4.6555 0
-432.007 -4.6553 0
-430.442 -4.65443 0
-428.873 -4.65743 0
-427.311 -4.65954 0
-425.75 -4.65285 0
-424.18 -4.65108 0
-422.613 -4.65312 0
-421.048 -4.65187 0
-419.481 -4.65145 0
-417.919 -4.6503 0
-416.351 -4.6517 0
-414.787 -4.65064 0
-413.223 -4.64754 0
-411.653 -4.64663 0
-410.091 -4.64737 0
-408.521 -4.6456 0
-406.958 -4.63874 0
-405.394 -4.64163 0
-403.827 -4.64338 0
-402.261 -4.64037 0
-400.696 -4.64299 0
-399.129 -4.64214 0
-397.568 -4.63753 0
-396 -4.6375 0
-394.436 -4.63475 0
-392.871 -4.63595 0
-391.304 -4.63425 0
-389.736 -4.63397 0
-388.171 -4.63643 0
-386.604 -4.62856 0
-385.038 -4.62991 0
-383.47 -4.62849 0
-381.901 -4.63004 0
-380.335 -4.63148 0
-378.772 -4.62859 0
-377.212 -4.6273 0
-375.642 -4.62645 0
-374.078 -4.62367 0
-372.507 -4.62136 0
-370.945 -4.62095 0
-369.384 -4.62215 0
-367.819 -4.6171 0
-366.251 -4.62309 0
-364.687 -4.62114 0
-363.117 -4.6192 0
-361.553 -4.6168 0
-359.99 -4.61929 0
-358.425 -4.62025 0
-356.857 -4.62136 0
-355.293 -4.61656 0
-353.725 -4.61633 0
-352.155 -4.6119 0
-350.588 -4.61312 0
-349.023 -4.61161 0
-347.46 -4.61366 0
-345.896 -4.61052 0
-344.327 -4.61109 0
-342.758 -4.61043 0
-341.193 -4.61154 0
-339.625 -4.61341 0
-338.062 -4.61543 0
-336.495 -4.61169 0
-334.927 -4.61272 0
-333.361 -4.6125 0
-331.797 -4.60751 0
-330.235 -4.60983 0
-328.671 -4.61178 0
-327.104 -4.61061 0
-325.54 -4.61241 0
-323.974 -4.60841 0
-322.406 -4.60928 0
-320.843 -4.60786 0
-319.275 -4.60815 0
-317.714 -4.61133 0
-316.151 -4.61192 0
-314.584 -4.61419 0
-313.018 -4.61575 0
-311.45 -4.61867 0
-309.887 -4.61355 0
-308.32 -4.61125 0
-306.755 -4.60812 0
-305.19 -4.61271 0
-303.623 -4.6048 0
-302.059 -4.61065 0
-300.493 -4.60958 0
-298.926 -4.6084 0
-297.362 -4.60955 0
-295.8 -4.61069 0
-294.236 -4.60654 0
-292.67 -4.60986 0
-291.103 -4.6042 0
-289.535 -4.60909 0
-287.972 -4.60303 0
-286.402 -4.60435 0
-284.837 -4.60433 0
-283.275 -4.61122 0
-281.706 -4.61388 0
-280.142 -4.61361 0
-278.573 -4.61024 0
-277.006 -4.61084 0
-275.446 -4.60915 0
-273.881 -4.60916 0
-272.316 -4.60564 0
-270.748 -4.61158 0
-269.185 -4.60598 0
-267.621 -4.61039 0
-266.056 -4.61489 0
-264.49 -4.613 0
-262.921 -4.6161 0
-261.356 -4.6176 0
-259.795 -4.61679 0
-258.231 -4.61936 0
-256.664 -4.61765 0
-255.098 -4.61249 0
-253.53 -4.60919 0
-251.965 -4.61597 0
-250.402 -4.61245 0
-248.835 -4.61211 0
-247.267 -4.61431 0
-245.699 -4.61129 0
-244.137 -4.6158 0
-242.571 -4.61356 0
-241.01 -4.61433 0
-239.443 -4.62284 0
-237.878 -4.61811 0
-236.315 -4.61595 0
-234.745 -4.61655 0
-233.181 -4.61816 0
-231.617 -4.6209 0
-230.052 -4.62238 0
-228.486 -4.62198 0
-226.925 -4.62034 0
-225.364 -4.61973 0
-223.796 -4.62371 0
-222.229 -4.62495 0
-220.663 -4.62294 0
-219.096 -4.62611 0
-217.529 -4.62489 0
-215.965 -4.62244 0
-214.402 -4.62552 0
-212.838 -4.62267 0
-211.273 -4.62146 0
-209.708 -4.62326 0
-208.145 -4.62302 0
-206.577 -4.62786 0
-205.012 -4.62339 0
-203.449 -4.62587 0
-201.885 -4.62424 0
-200.317 -4.62758 0
-198.752 -4.62438 0
-197.188 -4.62643 0
-195.624 -4.6263 0
-194.056 -4.62507 0
-192.492 -4.62405 0
-190.925 -4.62497 0
-189.357 -4.62481 0
-187.796 -4.62392 0
-186.23 -4.62919 0
-184.666 -4.62818 0
-183.099 -4.6277 0
-181.537 -4.62646 0
-179.972 -4.62539 0
-178.407 -4.62516 0
-176.842 -4.62572 0
-175.278 -4.62186 0
-173.713 -4.6207 0
-172.145 -4.61701 0
-170.581 -4.62265 0
-169.016 -4.62129 0
-167.45 -4.62065 0
-165.885 -4.6259 0
-164.319 -4.62449 0
-162.755 -4.62304 0
-161.192 -4.62579 0
-159.624 -4.62196 0
-158.06 -4.62604 0
-156.494 -4.62387 0
-154.93 -4.62448 0
-153.363 -4.62276 0
-151.8 -4.62397 0
-150.235 -4.62236 0
-148.668 -4.62464 0
-147.102 -4.62737 0
-145.541 -4.63055 0
-143.974 -4.6297 0
-142.407 -4.62805 0
-140.84 -4.62714 0
-139.276 -4.62435 0
-137.708 -4.62077 0
-136.145 -4.62603 0
-134.578 -4.62963 0
-133.013 -4.62348 0
-131.448 -4.6247 0
-129.885 -4.62314 0
-128.321 -4.62346 0
-126.757 -4.62339 0
-125.192 -4.62317 0
-123.623 -4.62214 0
-122.059 -4.62083 0
-120.49 -4.61917 0
-118.926 -4.62058 0
-117.362 -4.61809 0
-115.799 -4.61962 0
-114.238 -4.62069 0
-112.672 -4.61732 0
-111.113 -4.62024 0
-109.545 -4.61972 0
-107.977 -4.61781 0
-106.412 -4.62033 0
-104.847 -4.62079 0
-103.281 -4.61994 0
-101.715 -4.61894 0
-100.149 -4.62219 0
-98.5849 -4.62045 0
-97.0224 -4.62174 0
-95.4529 -4.61792 0
-93.8873 -4.62305 0
-92.3244 -4.6198 0
-90.7578 -4.61565 0
-89.194 -4.61858 0
-87.6272 -4.61575 0
-86.062 -4.61423 0
-84.4918 -4.61345 0
-82.9299 -4.62053 0
-81.3636 -4.62101 0
-79.8017 -4.62069 0
-78.2451 -4.6217 0
-76.6763 -4.61685 0
-75.109 -4.61675 0
-73.5474 -4.61583 0
-71.9852 -4.61146 0
-70.4182 -4.61471 0
-68.852 -4.61745 0
-67.2853 -4.61833 0
-65.7188 -4.6179 0
-64.1532 -4.6248 0
-62.5894 -4.61967 0
-61.0238 -4.6229 0
-59.4551 -4.62145 0
-57.8898 -4.61966 0
-56.3269 -4.61916 0
-54.7635 -4.62246 0
-53.1978 -4.61485 0
-51.6345 -4.61759 0
-50.0715 -4.61923 0
-48.5067 -4.62045 0
-46.9426 -4.62433 0
-45.3795 -4.62434 0
-43.8176 -4.62583 0
-42.2571 -4.62022 0
-40.6872 -4.62613 0
-39.1268 -4.62322 0
-37.559 -4.61907 0
-35.9889 -4.61922 0
-34.4234 -4.61921 0
-32.8611 -4.61797 0
-31.298 -4.61167 0
-29.7317 -4.61462 0
-28.167 -4.61402 0
-26.5991 -4.61812 0
-25.0299 -4.61868 0
-23.4661 -4.61927 0
-21.8992 -4.62015 0
-20.3393 -4.62055 0
-18.7737 -4.62056 0
-17.2108 -4.61668 0
-15.646 -4.61944 0
-14.0832 -4.62148 0
-12.519 -4.61845 0
-10.955 -4.61444 0
-9.38849 -4.61792 0
-7.82605 -4.61833 0
-6.26255 -4.62072 0
-4.69388 -4.61819 0
-3.1292 -4.62095 0
-1.56554 -4.61945 0
0 -4.61567 0
-1048.32 80.1228 0
-1048.73 71.2627 0
-1049.13 62.5557 0
-1049.5 54.0661 0
-1049.84 45.8352 0
-1050.12 37.9432 0
-1050.35 30.4768 0
-1050.55 23.4962 0
-1050.71 17.0316 0
-1050.82 11.104 0
-1050.86 5.73117 0
-1050.83 0.929344 0
-1050.76 -3.31332 0
-1050.73 -7.10064 0
-1050.77 -10.6335 0
-1050.72 -13.9354 0
-1050.62 -16.8955 0
-1050.49 -19.4747 0
-1050.34 -21.6746 0
-1050.16 -23.5032 0
-1049.95 -24.9741 0
-1049.71 -26.108 0
-1049.43 -26.9319 0
-1049.1 -27.4764 0
-1048.73 -27.7719 0
-1048.3 -27.8474 0
-1047.82 -27.7288 0
-1047.27 -27.4392 0
-1046.67 -27.0001 0
-1046 -26.4299 0
-1045.28 -25.7467 0
-1044.5 -24.966 0
-1043.66 -24.1032 0
-1042.76 -23.1698 0
-1041.82 -22.1795 0
-1040.82 -21.1428 0
-1039.77 -20.0701 0
-1038.67 -18.9708 0
-1037.52 -17.8533 0
-1036.34 -16.7251 0
-1035.11 -15.5943 0
-1033.84 -14.4663 0
-1032.53 -13.3484 0
-1031.19 -12.2431 0
-1029.82 -11.157 0
-1028.41 -10.0942 0
-1026.97 -9.05716 0
-1025.51 -8.04985 0
-1024.02 -7.07396 0
-1022.51 -6.13301 0
-1020.97 -5.23005 0
-1019.41 -4.36567 0
-1017.84 -3.54019 0
-1016.25 -2.75576 0
-1014.64 -2.01349 0
-1013.01 -1.31256 0
-1011.38 -0.65665 0
-1009.73 -0.04207 0
-1008.07 0.529564 0
-1006.4 1.05836 0
-1004.73 1.54401 0
-1003.04 1.98743 0
-1001.35 2.3896 0
-999.659 2.74986 0
-997.96 3.07091 0
-996.257 3.35284 0
-994.55 3.596 0
-992.843 3.80301 0
-991.134 3.97346 0
-989.426 4.10985 0
-987.718 4.21116 0
-986.011 4.28188 0
-984.305 4.32 0
-982.601 4.3303 0
-980.898 4.31179 0
-979.2 4.26616 0
-977.505 4.19632 0
-975.815 4.1015 0
-974.127 3.98436 0
-972.445 3.84651 0
-970.767 3.69035 0
-969.094 3.51596 0
-967.426 3.32457 0
-965.762 3.11653 0
-964.105 2.89568 0
-962.453 2.6626 0
-960.808 2.41896 0
-959.168 2.16614 0
-957.533 1.90472 0
-955.904 1.63443 0
-954.28 1.35942 0
-952.663 1.07877 0
-951.051 0.79625 0
-949.445 0.510746 0
-947.844 0.22336 0
-946.249 -0.063907 0
-944.658 -0.352407 0
-943.072 -0.636617 0
-941.492 -0.920303 0
-939.917 -1.19946 0
-938.345 -1.47405 0
-936.779 -1.74389 0
-935.215 -2.00867 0
-933.655 -2.26818 0
-932.1 -2.51974 0
-930.549 -2.76494 0
-929 -3.00097 0
-927.455 -3.2276 0
-925.913 -3.44764 0
-924.373 -3.65746 0
-922.836 -3.85801 0
-921.302 -4.04826 0
-919.768 -4.22942 0
-918.236 -4.40098 0
-916.707 -4.56136 0
-915.178 -4.71166 0
-913.651 -4.85023 0
-912.126 -4.98041 0
-910.602 -5.10079 0
-909.078 -5.20786 0
-907.554 -5.30722 0
-906.03 -5.3961 0
-904.506 -5.47513 0
-902.983 -5.54254 0
-901.459 -5.60032 0
-899.935 -5.64929 0
-898.41 -5.69161 0
-896.885 -5.72191 0
-895.359 -5.74329 0
-893.834 -5.75634 0
-892.306 -5.76022 0
-890.778 -5.75825 0
-889.25 -5.74821 0
-887.72 -5.73066 0
-886.187 -5.70684 0
-884.653 -5.67498 0
-883.12 -5.63719 0
-881.584 -5.59556 0
-880.047 -5.54554 0
-878.51 -5.49053 0
-876.971 -5.43309 0
-875.43 -5.36974 0
-873.889 -5.30116 0
-872.345 -5.23046 0
-870.799 -5.15501 0
-869.253 -5.07921 0
-867.704 -5.00006 0
-866.154 -4.91539 0
-864.603 -4.83143 0
-863.05 -4.74473 0
-861.496 -4.65708 0
-859.94 -4.56872 0
-858.383 -4.47839 0
-856.824 -4.38857 0
-855.264 -4.29823 0
-853.703 -4.20638 0
-852.14 -4.11609 0
-850.576 -4.02626 0
-849.013 -3.93666 0
-847.446 -3.84913 0
-845.879 -3.76128 0
-844.312 -3.67598 0
-842.742 -3.59025 0
-841.173 -3.50577 0
-839.602 -3.4234 0
-838.03 -3.34412 0
-836.456 -3.26602 0
-834.882 -3.18956 0
-833.308 -3.11748 0
-831.734 -3.04704 0
-830.158 -2.97869 0
-828.58 -2.91553 0
-827.003 -2.85232 0
-825.426 -2.79073 0
-823.847 -2.73469 0
-822.268 -2.68038 0
-820.689 -2.62757 0
-819.11 -2.58215 0
-817.532 -2.53664 0
-815.951 -2.49463 0
-814.372 -2.45469 0
-812.793 -2.41776 0
-811.214 -2.38237 0
-809.634 -2.35318 0
-808.054 -2.32449 0
-806.473 -2.3003 0
-804.894 -2.27971 0
-803.314 -2.25909 0
-801.736 -2.24156 0
-800.156 -2.22779 0
-798.576 -2.21764 0
-796.998 -2.20608 0
-795.419 -2.19932 0
-793.84 -2.19698 0
-792.262 -2.19671 0
-790.683 -2.19704 0
-789.106 -2.19921 0
-787.529 -2.20471 0
-785.951 -2.21013 0
-784.375 -2.21835 0
-782.798 -2.22968 0
-781.221 -2.24417 0
-779.645 -2.25655 0
-778.071 -2.27152 0
-776.496 -2.29067 0
-774.922 -2.30963 0
-773.35 -2.33011 0
-771.774 -2.35279 0
-770.201 -2.37561 0
-768.628 -2.39721 0
-767.056 -2.42024 0
-765.485 -2.44697 0
-763.914 -2.47204 0
-762.345 -2.49844 0
-760.775 -2.52405 0
-759.203 -2.55085 0
-757.633 -2.57986 0
-756.062 -2.60918 0
-754.493 -2.63917 0
-752.924 -2.6674 0
-751.355 -2.69754 0
-749.787 -2.72596 0
-748.219 -2.75369 0
-746.653 -2.78253 0
-745.087 -2.80986 0
-743.52 -2.83877 0
-741.955 -2.86714 0
-740.389 -2.89418 0
-738.824 -2.92124 0
-737.259 -2.94844 0
-735.694 -2.97607 0
-734.13 -3.0002 0
-732.566 -3.02698 0
-731.002 -3.05306 0
-729.439 -3.07758 0
-727.873 -3.10371 0
-726.309 -3.1258 0
-724.746 -3.14603 0
-723.183 -3.1667 0
-721.621 -3.18934 0
-720.06 -3.20688 0
-718.496 -3.22453 0
-716.935 -3.24182 0
-715.373 -3.25843 0
-713.809 -3.27234 0
-712.247 -3.28629 0
-710.686 -3.29993 0
-709.123 -3.31328 0
-707.559 -3.32692 0
-705.996 -3.339 0
-704.433 -3.34863 0
-702.871 -3.35742 0
-701.31 -3.36776 0
-699.748 -3.37584 0
-698.187 -3.38131 0
-696.626 -3.38824 0
-695.064 -3.39492 0
-693.499 -3.39692 0
-691.937 -3.40129 0
-690.374 -3.40687 0
-688.811 -3.40967 0
-687.248 -3.41243 0
-685.686 -3.41269 0
-684.124 -3.41408 0
-682.56 -3.41383 0
-680.998 -3.41212 0
-679.436 -3.40942 0
-677.876 -3.40682 0
-676.313 -3.40456 0
-674.749 -3.40052 0
-673.185 -3.39795 0
-671.622 -3.39381 0
-670.058 -3.38503 0
-668.495 -3.3772 0
-666.931 -3.37211 0
-665.368 -3.36504 0
-663.803 -3.35784 0
-662.241 -3.35165 0
-660.676 -3.34608 0
-659.109 -3.33905 0
-657.545 -3.33255 0
-655.981 -3.32068 0
-654.416 -3.31266 0
-652.852 -3.30455 0
-651.285 -3.29395 0
-649.719 -3.28556 0
-648.156 -3.27828 0
-646.592 -3.27003 0
-645.029 -3.2603 0
-643.461 -3.2512 0
-641.895 -3.24218 0
-640.327 -3.23138 0
-638.761 -3.22083 0
-637.195 -3.21015 0
-635.628 -3.20223 0
-634.064 -3.1931 0
-632.497 -3.18252 0
-630.931 -3.17676 0
-629.364 -3.16546 0
-627.796 -3.1545 0
-626.23 -3.14561 0
-624.663 -3.13773 0
-623.098 -3.12888 0
-621.531 -3.12197 0
-619.964 -3.11304 0
-618.398 -3.10395 0
-616.831 -3.09126 0
-615.264 -3.08598 0
-613.697 -3.07862 0
-612.128 -3.07181 0
-610.562 -3.06612 0
-608.997 -3.05871 0
-607.429 -3.05329 0
-605.862 -3.04917 0
-604.293 -3.04385 0
-602.725 -3.03672 0
-601.156 -3.03089 0
-599.591 -3.02552 0
-598.021 -3.01886 0
-596.455 -3.01579 0
-594.886 -3.01312 0
-593.318 -3.00845 0
-591.753 -3.00339 0
-590.186 -2.99928 0
-588.619 -2.99729 0
-587.053 -2.99671 0
-585.486 -2.9924 0
-583.921 -2.98965 0
-582.351 -2.98407 0
-580.781 -2.98446 0
-579.215 -2.98403 0
-577.648 -2.98256 0
-576.08 -2.98052 0
-574.515 -2.97852 0
-572.946 -2.97932 0
-571.378 -2.97907 0
-569.812 -2.97886 0
-568.243 -2.98209 0
-566.673 -2.97966 0
-565.109 -2.97736 0
-563.542 -2.97878 0
-561.975 -2.9828 0
-560.407 -2.98047 0
-558.841 -2.98299 0
-557.275 -2.98308 0
-555.707 -2.98505 0
-554.14 -2.98685 0
-552.573 -2.99123 0
-551.006 -2.99227 0
-549.442 -2.99346 0
-547.874 -2.99496 0
-546.306 -2.99822 0
-544.737 -2.99976 0
-543.172 -3.00371 0
-541.607 -3.00781 0
-540.043 -3.01278 0
-538.473 -3.01693 0
-536.907 -3.018 0
-535.339 -3.01849 0
-533.774 -3.01757 0
-532.208 -3.02265 0
-530.643 -3.02654 0
-529.076 -3.03005 0
-527.508 -3.0326 0
-525.942 -3.03456 0
-524.377 -3.03988 0
-522.813 -3.0436 0
-521.246 -3.04581 0
-519.679 -3.04746 0
-518.113 -3.051 0
-516.55 -3.05161 0
-514.981 -3.05459 0
-513.419 -3.05812 0
-511.854 -3.06259 0
-510.286 -3.06456 0
-508.72 -3.0667 0
-507.155 -3.06997 0
-505.591 -3.0743 0
-504.024 -3.07677 0
-502.461 -3.07972 0
-500.893 -3.08144 0
-499.326 -3.08158 0
-497.759 -3.08671 0
-496.195 -3.08603 0
-494.628 -3.0878 0
-493.063 -3.08655 0
-491.495 -3.09296 0
-489.931 -3.09376 0
-488.368 -3.09685 0
-486.805 -3.09922 0
-485.239 -3.1059 0
-483.671 -3.10551 0
-482.104 -3.10725 0
-480.54 -3.10997 0
-478.975 -3.10815 0
-477.408 -3.11038 0
-475.846 -3.11203 0
-474.282 -3.11083 0
-472.713 -3.11144 0
-471.148 -3.10968 0
-469.58 -3.11234 0
-468.015 -3.11034 0
-466.449 -3.11497 0
-464.883 -3.11284 0
-463.318 -3.11309 0
-461.751 -3.1117 0
-460.188 -3.11399 0
-458.622 -3.11515 0
-457.058 -3.11696 0
-455.491 -3.12013 0
-453.923 -3.11702 0
-452.359 -3.12186 0
-450.794 -3.12065 0
-449.229 -3.12459 0
-447.664 -3.12338 0
-446.101 -3.12353 0
-444.532 -3.12272 0
-442.965 -3.1193 0
-441.401 -3.11893 0
-439.836 -3.11733 0
-438.27 -3.11493 0
-436.704 -3.1164 0
-435.139 -3.11776 0
-433.573 -3.11266 0
-432.006 -3.1126 0
-430.441 -3.11323 0
-428.876 -3.11383 0
-427.31 -3.11378 0
-425.743 -3.11121 0
-424.178 -3.11097 0
-422.614 -3.11135 0
-421.045 -3.11046 0
-419.483 -3.11089 0
-417.917 -3.11125 0
-416.351 -3.1112 0
-414.787 -3.10928 0
-413.222 -3.1044 0
-411.653 -3.10543 0
-410.089 -3.10088 0
-408.524 -3.10068 0
-406.957 -3.10071 0
-405.39 -3.10234 0
-403.825 -3.10144 0
-402.261 -3.09932 0
-400.694 -3.10221 0
-399.128 -3.09919 0
-397.565 -3.09361 0
-395.999 -3.09452 0
-394.436 -3.09295 0
-392.87 -3.092 0
-391.301 -3.09293 0
-389.737 -3.0917 0
-388.171 -3.09 0
-386.603 -3.08776 0
-385.037 -3.08565 0
-383.472 -3.08676 0
-381.905 -3.08672 0
-380.337 -3.0873 0
-378.771 -3.0873 0
-377.206 -3.08461 0
-375.64 -3.08017 0
-374.075 -3.07872 0
-372.508 -3.07886 0
-370.943 -3.08032 0
-369.378 -3.0784 0
-367.814 -3.07815 0
-366.251 -3.07577 0
-364.685 -3.07468 0
-363.121 -3.07808 0
-361.555 -3.07385 0
-359.988 -3.07568 0
-358.423 -3.08012 0
-356.855 -3.07729 0
-355.29 -3.07626 0
-353.725 -3.07556 0
-352.158 -3.07408 0
-350.59 -3.07008 0
-349.025 -3.06989 0
-347.459 -3.07038 0
-345.891 -3.06763 0
-344.329 -3.06711 0
-342.762 -3.07033 0
-341.193 -3.06648 0
-339.627 -3.06798 0
-338.06 -3.07106 0
-336.492 -3.06656 0
-334.926 -3.07066 0
-333.364 -3.07043 0
-331.801 -3.06703 0
-330.239 -3.07208 0
-328.673 -3.06586 0
-327.105 -3.07028 0
-325.539 -3.0721 0
-323.971 -3.06933 0
-322.409 -3.06929 0
-320.845 -3.06789 0
-319.282 -3.0687 0
-317.718 -3.06931 0
-316.151 -3.06845 0
-314.587 -3.07122 0
-313.021 -3.07066 0
-311.452 -3.07435 0
-309.884 -3.07125 0
-308.321 -3.06719 0
-306.756 -3.06562 0
-305.19 -3.06883 0
-303.625 -3.06288 0
-302.06 -3.06768 0
-300.495 -3.06892 0
-298.929 -3.06547 0
-297.362 -3.06735 0
-295.796 -3.06918 0
-294.231 -3.06679 0
-292.665 -3.07018 0
-291.103 -3.06469 0
-289.539 -3.06362 0
-287.972 -3.06438 0
-286.407 -3.06437 0
-284.84 -3.06579 0
-283.272 -3.06677 0
-281.708 -3.07038 0
-280.143 -3.0662 0
-278.576 -3.06613 0
-277.011 -3.07041 0
-275.446 -3.06877 0
-273.88 -3.06658 0
-272.316 -3.0626 0
-270.752 -3.06707 0
-269.19 -3.06798 0
-267.623 -3.06894 0
-266.056 -3.07127 0
-264.489 -3.0699 0
-262.925 -3.07178 0
-261.357 -3.07575 0
-259.796 -3.07531 0
-258.23 -3.0757 0
-256.663 -3.07669 0
-255.097 -3.07183 0
-253.535 -3.07219 0
-251.964 -3.07175 0
-250.399 -3.07354 0
-248.834 -3.07072 0
-247.27 -3.07008 0
-245.705 -3.07099 0
-244.135 -3.07334 0
-242.573 -3.07348 0
-241.01 -3.07888 0
-239.446 -3.07765 0
-237.879 -3.07853 0
-236.313 -3.07323 0
-234.747 -3.07234 0
-233.182 -3.07721 0
-231.615 -3.07926 0
-230.051 -3.08047 0
-228.486 -3.08321 0
-226.924 -3.08027 0
-225.36 -3.08037 0
-223.797 -3.08255 0
-222.232 -3.08038 0
-220.664 -3.08221 0
-219.098 -3.0829 0
-217.53 -3.08231 0
-215.965 -3.08455 0
-214.401 -3.08444 0
-212.838 -3.08173 0
-211.272 -3.08324 0
-209.705 -3.08244 0
-208.141 -3.08369 0
-206.577 -3.08392 0
-205.012 -3.08424 0
-203.449 -3.08477 0
-201.883 -3.08349 0
-200.32 -3.08441 0
-198.751 -3.08435 0
-197.184 -3.08533 0
-195.621 -3.08326 0
-194.056 -3.08469 0
-192.491 -3.08388 0
-190.925 -3.08446 0
-189.361 -3.08364 0
-187.796 -3.08429 0
-186.23 -3.0865 0
-184.664 -3.08425 0
-183.099 -3.08693 0
-181.537 -3.08468 0
-179.972 -3.08651 0
-178.405 -3.08332 0
-176.841 -3.08292 0
-175.277 -3.07903 0
-173.713 -3.07803 0
-172.148 -3.0776 0
-170.581 -3.08109 0
-169.017 -3.08306 0
-167.45 -3.0793 0
-165.887 -3.08327 0
-164.319 -3.08234 0
-162.758 -3.08314 0
-161.192 -3.08361 0
-159.629 -3.08298 0
-158.064 -3.08315 0
-156.497 -3.08083 0
-154.928 -3.0815 0
-153.362 -3.08294 0
-151.797 -3.08377 0
-150.235 -3.08211 0
-148.668 -3.08305 0
-147.103 -3.08503 0
-145.537 -3.08806 0
-143.969 -3.08456 0
-142.407 -3.08483 0
-140.84 -3.08406 0
-139.272 -3.08206 0
-137.709 -3.08318 0
-136.145 -3.08422 0
-134.579 -3.0832 0
-133.014 -3.08244 0
-131.448 -3.0816 0
-129.886 -3.08118 0
-128.32 -3.08018 0
-126.755 -3.08327 0
-125.188 -3.08201 0
-123.624 -3.07995 0
-122.055 -3.07755 0
-120.492 -3.07933 0
-118.925 -3.07754 0
-117.36 -3.08013 0
-115.798 -3.07813 0
-114.234 -3.0821 0
-112.671 -3.07803 0
-111.107 -3.07719 0
-109.541 -3.07692 0
-107.976 -3.07596 0
-106.411 -3.0772 0
-104.842 -3.07832 0
-103.279 -3.08018 0
-101.717 -3.07454 0
-100.149 -3.07597 0
-98.5856 -3.07821 0
-97.0194 -3.07823 0
-95.4535 -3.07687 0
-93.8892 -3.07998 0
-92.3218 -3.07628 0
-90.7572 -3.07496 0
-89.1924 -3.07628 0
-87.624 -3.07575 0
-86.0584 -3.07235 0
-84.4988 -3.07112 0
-82.9344 -3.07733 0
-81.3684 -3.08219 0
-79.8046 -3.08251 0
-78.2371 -3.08016 0
-76.6731 -3.07639 0
-75.1072 -3.07819 0
-73.5454 -3.07498 0
-71.9805 -3.07323 0
-70.4176 -3.07208 0
-68.8529 -3.07268 0
-67.2844 -3.07108 0
-65.7171 -3.07702 0
-64.1513 -3.0792 0
-62.5897 -3.07913 0
-61.0218 -3.08116 0
-59.4584 -3.07904 0
-57.8935 -3.07725 0
-56.3263 -3.07948 0
-54.7628 -3.07915 0
-53.1977 -3.07727 0
-51.6356 -3.07766 0
-50.0706 -3.07884 0
-48.5082 -3.07936 0
-46.9419 -3.08169 0
-45.3802 -3.0816 0
-43.8151 -3.08353 0
-42.2518 -3.07999 0
-40.687 -3.0782 0
-39.1201 -3.07611 0
-37.5538 -3.07738 0
-35.9888 -3.07631 0
-34.4228 -3.07911 0
-32.8578 -3.07716 0
-31.2972 -3.07043 0
-29.7277 -3.0732 0
-28.1657 -3.07234 0
-26.6039 -3.07605 0
-25.0332 -3.07816 0
-23.4676 -3.07732 0
-21.907 -3.07662 0
-20.3398 -3.07822 0
-18.7724 -3.0793 0
-17.2091 -3.07554 0
-15.6461 -3.0778 0
-14.0808 -3.07891 0
-12.516 -3.07953 0
-10.9535 -3.07625 0
-9.39104 -3.07855 0
-7.82669 -3.07891 0
-6.25864 -3.0774 0
-4.69266 -3.07559 0
-3.1307 -3.07738 0
-1.56515 -3.07552 0
0 -3.07213 0
-1057.37 81.0427 0
-1057.38 71.9309 0
-1057.55 63.2067 0
-1057.66 54.7236 0
-1057.69 46.5144 0
-1057.63 38.6351 0
-1057.46 31.1628 0
-1057.22 24.1625 0
-1056.91 17.6808 0
-1056.53 11.7434 0
-1056.08 6.36752 0
-1055.59 1.5484 0
-1055.11 -2.76452 0
-1054.7 -6.68389 0
-1054.33 -10.2659 0
-1053.97 -13.5206 0
-1053.55 -16.4567 0
-1053.07 -19.0335 0
-1052.56 -21.2341 0
-1052.02 -23.0636 0
-1051.47 -24.5305 0
-1050.9 -25.6562 0
-1050.32 -26.4652 0
-1049.72 -26.9866 0
-1049.1 -27.2516 0
-1048.45 -27.2899 0
-1047.77 -27.1298 0
-1047.06 -26.7945 0
-1046.3 -26.3071 0
-1045.51 -25.6872 0
-1044.68 -24.9537 0
-1043.8 -24.1231 0
-1042.88 -23.2102 0
-1041.92 -22.2286 0
-1040.91 -21.1908 0
-1039.87 -20.1075 0
-1038.78 -18.9903 0
-1037.66 -17.8479 0
-1036.49 -16.6887 0
-1035.3 -15.5209 0
-1034.06 -14.3524 0
-1032.8 -13.1894 0
-1031.5 -12.0369 0
-1030.17 -10.9 0
-1028.81 -9.78389 0
-1027.42 -8.69292 0
-1026.01 -7.62856 0
-1024.58 -6.59695 0
-1023.12 -5.59845 0
-1021.64 -4.63755 0
-1020.14 -3.71398 0
-1018.62 -2.83076 0
-1017.08 -1.98866 0
-1015.52 -1.18897 0
-1013.95 -0.4326 0
-1012.37 0.280819 0
-1010.78 0.949043 0
-1009.17 1.57339 0
-1007.55 2.15447 0
-1005.92 2.69153 0
-1004.29 3.1841 0
-1002.64 3.63408 0
-1000.99 4.04112 0
-999.334 4.40586 0
-997.672 4.73092 0
-996.005 5.01587 0
-994.335 5.2616 0
-992.663 5.46974 0
-990.988 5.64041 0
-989.311 5.77745 0
-987.634 5.87875 0
-985.957 5.94797 0
-984.28 5.98509 0
-982.602 5.99348 0
-980.928 5.97235 0
-979.255 5.92461 0
-977.583 5.85091 0
-975.914 5.75313 0
-974.247 5.63264 0
-972.583 5.4909 0
-970.923 5.33013 0
-969.267 5.15077 0
-967.615 4.95521 0
-965.965 4.74209 0
-964.32 4.51769 0
-962.68 4.27912 0
-961.044 4.0302 0
-959.412 3.77256 0
-957.785 3.50532 0
-956.163 3.23097 0
-954.545 2.95195 0
-952.931 2.6661 0
-951.322 2.37835 0
-949.718 2.08823 0
-948.118 1.79547 0
-946.522 1.50416 0
-944.931 1.21115 0
-943.344 0.921924 0
-941.761 0.634325 0
-940.182 0.351261 0
-938.605 0.0725114 0
-937.033 -0.201206 0
-935.464 -0.47002 0