<?xml version="1.0"?>
<VTKFile type="StructuredGrid"  version="0.1" byte_order="LittleEndian" compressor="vtkZLibDataCompressor">
  <StructuredGrid WholeExtent="0 700 0 30 0 0">
    <Piece Extent="0 700 0 30 0 0">
      <PointData Vectors="Velocity">
        <DataArray type="Float32" Name="Velocity" NumberOfComponents="3" format="ascii">
-1073.57 103.347 0
-1073.97 93.1537 0
-1074.43 83.0996 0
-1074.9 73.2588 0
-1075.4 63.676 0
-1075.93 54.4193 0
-1076.51 45.5575 0
-1077.13 37.1644 0
-1077.75 29.2684 0
-1078.36 21.884 0
-1078.95 15.0523 0
-1079.52 8.77671 0
-1080.04 3.08582 0
-1080.46 -2.04653 0
-1080.66 -6.74255 0
-1080.92 -11.1674 0
-1081.12 -15.3064 0
-1081.41 -19.0732 0
-1081.66 -22.4539 0
-1081.87 -25.4396 0
-1082.07 -28.0431 0
-1082.22 -30.2777 0
-1082.34 -32.1484 0
-1082.4 -33.6786 0
-1082.41 -34.8992 0
-1082.35 -35.8293 0
-1082.22 -36.4997 0
-1082.01 -36.927 0
-1081.73 -37.1377 0
-1081.38 -37.1509 0
-1080.96 -36.9825 0
-1080.46 -36.6542 0
-1079.89 -36.1788 0
-1079.25 -35.5731 0
-1078.54 -34.8484 0
-1077.76 -34.0233 0
-1076.92 -33.1123 0
-1076.02 -32.1132 0
-1075.05 -31.0481 0
-1074.03 -29.9241 0
-1072.96 -28.7528 0
-1071.83 -27.5396 0
-1070.65 -26.2915 0
-1069.42 -25.0237 0
-1068.14 -23.7372 0
-1066.82 -22.4388 0
-1065.45 -21.1415 0
-1064.05 -19.8391 0
-1062.61 -18.545 0
-1061.13 -17.2589 0
-1059.62 -15.9936 0
-1058.07 -14.7483 0
-1056.5 -13.5203 0
-1054.91 -12.3187 0
-1053.28 -11.1463 0
-1051.63 -10.0035 0
-1049.96 -8.897 0
-1048.27 -7.82197 0
-1046.56 -6.78785 0
-1044.84 -5.78823 0
-1043.09 -4.82851 0
-1041.34 -3.91177 0
-1039.56 -3.03427 0
-1037.78 -2.20152 0
-1035.99 -1.41286 0
-1034.19 -0.665285 0
-1032.37 0.0393827 0
-1030.55 0.70054 0
-1028.73 1.31889 0
-1026.9 1.89321 0
-1025.06 2.42407 0
-1023.22 2.91002 0
-1021.38 3.35486 0
-1019.54 3.75989 0
-1017.69 4.12533 0
-1015.85 4.44846 0
-1014 4.73139 0
-1012.16 4.97514 0
-1010.32 5.18477 0
-1008.48 5.35633 0
-1006.65 5.49342 0
-1004.81 5.59513 0
-1002.99 5.66342 0
-1001.17 5.70192 0
-999.342 5.70578 0
-997.528 5.68148 0
-995.72 5.6269 0
-993.916 5.54519 0
-992.12 5.4387 0
-990.328 5.307 0
-988.545 5.15255 0
-986.767 4.97303 0
-984.998 4.77466 0
-983.235 4.55879 0
-981.478 4.3228 0
-979.73 4.07007 0
-977.991 3.79962 0
-976.257 3.51634 0
-974.531 3.22076 0
-972.811 2.91045 0
-971.101 2.59264 0
-969.4 2.26696 0
-967.701 1.93047 0
-966.013 1.58605 0
-964.331 1.23821 0
-962.655 0.885987 0
-960.988 0.528315 0
-959.327 0.165716 0
-957.674 -0.195114 0
-956.027 -0.55773 0
-954.384 -0.918404 0
-952.749 -1.27927 0
-951.118 -1.6385 0
-949.493 -1.9962 0
-947.874 -2.34624 0
-946.261 -2.69462 0
-944.652 -3.03823 0
-943.05 -3.37573 0
-941.452 -3.70754 0
-939.857 -4.02751 0
-938.266 -4.34309 0
-936.678 -4.65121 0
-935.096 -4.95049 0
-933.514 -5.23772 0
-931.937 -5.51813 0
-930.364 -5.78747 0
-928.792 -6.04677 0
-927.223 -6.29687 0
-925.657 -6.53585 0
-924.094 -6.76392 0
-922.53 -6.98033 0
-920.968 -7.18553 0
-919.407 -7.3781 0
-917.847 -7.56281 0
-916.289 -7.73488 0
-914.732 -7.89307 0
-913.176 -8.04055 0
-911.618 -8.17864 0
-910.061 -8.30444 0
-908.503 -8.41918 0
-906.946 -8.52455 0
-905.389 -8.61562 0
-903.831 -8.69858 0
-902.273 -8.76892 0
-900.715 -8.82963 0
-899.154 -8.88101 0
-897.595 -8.92076 0
-896.031 -8.94942 0
-894.468 -8.97101 0
-892.901 -8.98305 0
-891.336 -8.98411 0
-889.768 -8.97888 0
-888.199 -8.9644 0
-886.632 -8.94338 0
-885.06 -8.91011 0
-883.488 -8.87143 0
-881.91 -8.82723 0
-880.331 -8.77631 0
-878.754 -8.71951 0
-877.174 -8.65483 0
-875.591 -8.58357 0
-874.006 -8.50806 0
-872.418 -8.42735 0
-870.828 -8.34223 0
-869.239 -8.25246 0
-867.644 -8.15988 0
-866.05 -8.06139 0
-864.456 -7.96104 0
-862.857 -7.85774 0
-861.257 -7.75051 0
-859.656 -7.64155 0
-858.051 -7.52946 0
-856.445 -7.41319 0
-854.837 -7.3008 0
-853.227 -7.184 0
-851.616 -7.0652 0
-850.003 -6.94676 0
-848.388 -6.82682 0
-846.772 -6.70881 0
-845.155 -6.58841 0
-843.536 -6.46877 0
-841.917 -6.349 0
-840.294 -6.23045 0
-838.671 -6.11425 0
-837.046 -5.99738 0
-835.42 -5.88185 0
-833.792 -5.76874 0
-832.165 -5.65949 0
-830.536 -5.54859 0
-828.905 -5.43869 0
-827.272 -5.33454 0
-825.639 -5.2323 0
-824.005 -5.132 0
-822.37 -5.03272 0
-820.736 -4.93827 0
-819.1 -4.84459 0
-817.462 -4.75613 0
-815.825 -4.66841 0
-814.185 -4.58339 0
-812.546 -4.50284 0
-810.904 -4.42651 0
-809.265 -4.35008 0
-807.625 -4.27708 0
-805.985 -4.20739 0
-804.346 -4.14295 0
-802.706 -4.08137 0
-801.066 -4.02645 0
-799.427 -3.96903 0
-797.784 -3.91501 0
-796.142 -3.86419 0
-794.499 -3.82053 0
-792.859 -3.78055 0
-791.218 -3.74228 0
-789.576 -3.70447 0
-787.932 -3.67043 0
-786.292 -3.64122 0
-784.65 -3.6149 0
-783.009 -3.58894 0
-781.37 -3.57044 0
-779.729 -3.55401 0
-778.09 -3.5383 0
-776.452 -3.52837 0
-774.813 -3.51785 0
-773.171 -3.51376 0
-771.533 -3.51047 0
-769.896 -3.51158 0
-768.256 -3.51129 0
-766.622 -3.51307 0
-764.984 -3.52106 0
-763.348 -3.52606 0
-761.714 -3.53754 0
-760.079 -3.5522 0
-758.442 -3.56443 0
-756.808 -3.58134 0
-755.174 -3.60041 0
-753.539 -3.62077 0
-751.907 -3.64239 0
-750.274 -3.66299 0
-748.643 -3.68727 0
-747.011 -3.71377 0
-745.379 -3.74235 0
-743.748 -3.77024 0
-742.117 -3.80048 0
-740.488 -3.82994 0
-738.861 -3.8629 0
-737.234 -3.8971 0
-735.608 -3.92572 0
-733.981 -3.96213 0
-732.353 -3.99584 0
-730.728 -4.03469 0
-729.104 -4.0689 0
-727.478 -4.10203 0
-725.852 -4.1362 0
-724.229 -4.17254 0
-722.607 -4.21454 0
-720.984 -4.25088 0
-719.359 -4.2854 0
-717.737 -4.32278 0
-716.116 -4.35729 0
-714.492 -4.3929 0
-712.871 -4.43052 0
-711.253 -4.4668 0
-709.632 -4.50095 0
-708.012 -4.53517 0
-706.393 -4.57021 0
-704.773 -4.60325 0
-703.155 -4.63724 0
-701.536 -4.67172 0
-699.917 -4.70284 0
-698.298 -4.73698 0
-696.681 -4.76295 0
-695.065 -4.79546 0
-693.448 -4.82641 0
-691.83 -4.85147 0
-690.213 -4.87908 0
-688.597 -4.90885 0
-686.98 -4.93355 0
-685.363 -4.95873 0
-683.75 -4.98202 0
-682.134 -5.00362 0
-680.519 -5.02605 0
-678.901 -5.04978 0
-677.288 -5.06878 0
-675.674 -5.08794 0
-674.057 -5.10423 0
-672.439 -5.12322 0
-670.823 -5.1375 0
-669.21 -5.15318 0
-667.596 -5.16927 0
-665.98 -5.18147 0
-664.366 -5.19749 0
-662.746 -5.20643 0
-661.131 -5.21886 0
-659.515 -5.23105 0
-657.898 -5.23962 0
-656.287 -5.24177 0
-654.669 -5.24919 0
-653.055 -5.25509 0
-651.442 -5.25842 0
-649.822 -5.2614 0
-648.204 -5.26647 0
-646.588 -5.26907 0
-644.973 -5.27404 0
-643.359 -5.27042 0
-641.743 -5.27265 0
-640.127 -5.27201 0
-638.511 -5.27129 0
-636.895 -5.2673 0
-635.278 -5.26378 0
-633.663 -5.25977 0
-632.046 -5.25681 0
-630.427 -5.25106 0
-628.809 -5.24645 0
-627.191 -5.23949 0
-625.574 -5.23266 0
-623.958 -5.2283 0
-622.342 -5.21969 0
-620.721 -5.21284 0
-619.102 -5.20211 0
-617.485 -5.19423 0
-615.866 -5.18559 0
-614.247 -5.17445 0
-612.625 -5.16201 0
-611.008 -5.15724 0
-609.385 -5.14597 0
-607.768 -5.13394 0
-606.151 -5.11957 0
-604.532 -5.11144 0
-602.913 -5.09945 0
-601.288 -5.0857 0
-599.671 -5.0715 0
-598.052 -5.06351 0
-596.428 -5.04917 0
-594.806 -5.03601 0
-593.187 -5.0266 0
-591.57 -5.01398 0
-589.951 -5.00223 0
-588.329 -4.98863 0
-586.708 -4.97469 0
-585.082 -4.96596 0
-583.461 -4.95479 0
-581.841 -4.9404 0
-580.217 -4.92889 0
-578.594 -4.91479 0
-576.974 -4.90306 0
-575.354 -4.88973 0
-573.732 -4.87771 0
-572.109 -4.86597 0
-570.487 -4.85232 0
-568.865 -4.84246 0
-567.238 -4.8317 0
-565.616 -4.82202 0
-563.992 -4.81624 0
-562.372 -4.80359 0
-560.75 -4.79261 0
-559.128 -4.78575 0
-557.505 -4.77553 0
-555.88 -4.76676 0
-554.259 -4.75653 0
-552.635 -4.74951 0
-551.013 -4.74131 0
-549.389 -4.73506 0
-547.764 -4.72141 0
-546.143 -4.71509 0
-544.52 -4.70446 0
-542.894 -4.69564 0
-541.272 -4.68655 0
-539.648 -4.6854 0
-538.029 -4.67821 0
-536.406 -4.67743 0
-534.78 -4.66481 0
-533.155 -4.66642 0
-531.534 -4.65626 0
-529.912 -4.65508 0
-528.291 -4.64782 0
-526.67 -4.64184 0
-525.044 -4.64482 0
-523.422 -4.64215 0
-521.796 -4.63891 0
-520.175 -4.63868 0
-518.551 -4.62946 0
-516.929 -4.62847 0
-515.309 -4.6259 0
-513.685 -4.62641 0
-512.059 -4.62433 0
-510.435 -4.62028 0
-508.812 -4.62154 0
-507.191 -4.61871 0
-505.566 -4.62202 0
-503.943 -4.62137 0
-502.32 -4.61979 0
-500.696 -4.62237 0
-499.071 -4.62237 0
-497.454 -4.62746 0
-495.833 -4.62743 0
-494.207 -4.62977 0
-492.587 -4.62729 0
-490.965 -4.63065 0
-489.342 -4.63505 0
-487.719 -4.63814 0
-486.1 -4.63682 0
-484.479 -4.64302 0
-482.859 -4.64241 0
-481.236 -4.64656 0
-479.612 -4.65157 0
-477.987 -4.65287 0
-476.364 -4.65718 0
-474.742 -4.66034 0
-473.121 -4.66214 0
-471.498 -4.66845 0
-469.877 -4.67285 0
-468.253 -4.67633 0
-466.636 -4.68162 0
-465.017 -4.68482 0
-463.394 -4.68244 0
-461.768 -4.68933 0
-460.146 -4.69143 0
-458.529 -4.69568 0
-456.905 -4.70264 0
-455.283 -4.70733 0
-453.661 -4.70986 0
-452.042 -4.7144 0
-450.426 -4.71674 0
-448.803 -4.7247 0
-447.182 -4.73125 0
-445.559 -4.73684 0
-443.937 -4.73432 0
-442.321 -4.74116 0
-440.702 -4.74916 0
-439.081 -4.75108 0
-437.459 -4.75366 0
-435.841 -4.75577 0
-434.215 -4.76053 0
-432.596 -4.76619 0
-430.973 -4.77032 0
-429.35 -4.77492 0
-427.733 -4.77476 0
-426.103 -4.77821 0
-424.485 -4.78054 0
-422.865 -4.78326 0
-421.248 -4.79305 0
-419.63 -4.80127 0
-418.003 -4.79653 0
-416.388 -4.79826 0
-414.77 -4.80353 0
-413.148 -4.81167 0
-411.529 -4.81297 0
-409.905 -4.81326 0
-408.289 -4.81437 0
-406.671 -4.82018 0
-405.049 -4.8206 0
-403.43 -4.8189 0
-401.807 -4.82224 0
-400.186 -4.82565 0
-398.565 -4.82887 0
-396.947 -4.83232 0
-395.325 -4.83184 0
-393.706 -4.8348 0
-392.09 -4.8347 0
-390.466 -4.83252 0
-388.852 -4.8384 0
-387.23 -4.84338 0
-385.605 -4.84672 0
-383.989 -4.84026 0
-382.372 -4.84216 0
-380.746 -4.84338 0
-379.121 -4.84742 0
-377.5 -4.84521 0
-375.879 -4.85148 0
-374.261 -4.86023 0
-372.647 -4.85799 0
-371.024 -4.85192 0
-369.407 -4.85912 0
-367.782 -4.85806 0
-366.162 -4.86069 0
-364.536 -4.86149 0
-362.92 -4.86141 0
-361.302 -4.86169 0
-359.684 -4.85571 0
-358.058 -4.85772 0
-356.44 -4.85261 0
-354.82 -4.85919 0
-353.194 -4.85541 0
-351.571 -4.85684 0
-349.955 -4.85684 0
-348.333 -4.86026 0
-346.714 -4.85901 0
-345.096 -4.86386 0
-343.477 -4.85574 0
-341.858 -4.85437 0
-340.236 -4.85299 0
-338.617 -4.85324 0
-336.993 -4.85299 0
-335.379 -4.85344 0
-333.755 -4.8544 0
-332.137 -4.85449 0
-330.517 -4.85631 0
-328.89 -4.84842 0
-327.27 -4.85051 0
-325.653 -4.85199 0
-324.036 -4.84971 0
-322.418 -4.8506 0
-320.795 -4.84349 0
-319.172 -4.84332 0
-317.553 -4.84393 0
-315.933 -4.84239 0
-314.311 -4.843 0
-312.691 -4.84026 0
-311.07 -4.83942 0
-309.454 -4.83732 0
-307.835 -4.8338 0
-306.213 -4.83179 0
-304.59 -4.83212 0
-302.968 -4.82693 0
-301.345 -4.83289 0
-299.73 -4.83215 0
-298.11 -4.8247 0
-296.483 -4.82632 0
-294.869 -4.82699 0
-293.251 -4.82435 0
-291.63 -4.82178 0
-290.012 -4.82263 0
-288.395 -4.82366 0
-286.773 -4.81719 0
-285.154 -4.81506 0
-283.529 -4.81339 0
-281.904 -4.81468 0
-280.282 -4.81065 0
-278.667 -4.81546 0
-277.046 -4.80475 0
-275.427 -4.80995 0
-273.804 -4.805 0
-272.182 -4.80172 0
-270.561 -4.80487 0
-268.939 -4.80424 0
-267.321 -4.80421 0
-265.696 -4.79368 0
-264.074 -4.79409 0
-262.452 -4.79984 0
-260.827 -4.79937 0
-259.212 -4.80315 0
-257.589 -4.80724 0
-255.968 -4.80185 0
-254.348 -4.79525 0
-252.729 -4.80204 0
-251.11 -4.80003 0
-249.493 -4.8008 0
-247.872 -4.79216 0
-246.246 -4.7997 0
-244.632 -4.79727 0
-243.006 -4.79279 0
-241.387 -4.79303 0
-239.762 -4.79279 0
-238.138 -4.79246 0
-236.516 -4.79253 0
-234.897 -4.78987 0
-233.278 -4.78568 0
-231.658 -4.79519 0
-230.037 -4.79073 0
-228.419 -4.79449 0
-226.804 -4.79289 0
-225.183 -4.78943 0
-223.559 -4.7926 0
-221.938 -4.78936 0
-220.319 -4.78369 0
-218.697 -4.78766 0
-217.079 -4.78463 0
-215.461 -4.78641 0
-213.837 -4.78709 0
-212.218 -4.77874 0
-210.594 -4.78053 0
-208.972 -4.77929 0
-207.352 -4.78134 0
-205.733 -4.78343 0
-204.116 -4.78122 0
-202.495 -4.78416 0
-200.875 -4.7834 0
-199.254 -4.78515 0
-197.636 -4.783 0
-196.012 -4.78109 0
-194.392 -4.78106 0
-192.769 -4.78793 0
-191.149 -4.78965 0
-189.531 -4.78402 0
-187.909 -4.78768 0
-186.286 -4.78373 0
-184.667 -4.78674 0
-183.05 -4.77816 0
-181.428 -4.77657 0
-179.813 -4.78287 0
-178.192 -4.78174 0
-176.571 -4.7811 0
-174.948 -4.77958 0
-173.324 -4.78055 0
-171.707 -4.7849 0
-170.084 -4.78375 0
-168.463 -4.78595 0
-166.844 -4.78773 0
-165.228 -4.7863 0
-163.605 -4.78614 0
-161.989 -4.78924 0
-160.367 -4.78814 0
-158.748 -4.78805 0
-157.13 -4.78842 0
-155.506 -4.78968 0
-153.885 -4.79432 0
-152.265 -4.79462 0
-150.644 -4.79322 0
-149.024 -4.79286 0
-147.405 -4.79009 0
-145.783 -4.79021 0
-144.164 -4.79778 0
-142.539 -4.79087 0
-140.924 -4.79621 0
-139.302 -4.79932 0
-137.681 -4.80477 0
-136.063 -4.80225 0
-134.446 -4.80312 0
-132.824 -4.80781 0
-131.2 -4.80365 0
-129.581 -4.80318 0
-127.963 -4.80137 0
-126.346 -4.80352 0
-124.721 -4.80359 0
-123.105 -4.80196 0
-121.487 -4.80153 0
-119.868 -4.79916 0
-118.249 -4.8028 0
-116.629 -4.80356 0
-115.008 -4.80722 0
-113.388 -4.80789 0
-111.765 -4.80491 0
-110.148 -4.80498 0
-108.524 -4.80237 0
-106.9 -4.80432 0
-105.277 -4.81196 0
-103.658 -4.80928 0
-102.041 -4.81385 0
-100.422 -4.81057 0
-98.8017 -4.80622 0
-97.1898 -4.80489 0
-95.5667 -4.80969 0
-93.946 -4.80977 0
-92.3257 -4.80998 0
-90.7063 -4.80901 0
-89.0866 -4.81028 0
-87.4668 -4.80569 0
-85.8478 -4.81093 0
-84.2268 -4.80798 0
-82.6053 -4.81212 0
-80.9839 -4.81025 0
-79.366 -4.8136 0
-77.7477 -4.81452 0
-76.1288 -4.8146 0
-74.5058 -4.8156 0
-72.8846 -4.81207 0
-71.266 -4.8116 0
-69.6458 -4.81624 0
-68.0261 -4.81554 0
-66.4048 -4.81237 0
-64.783 -4.81966 0
-63.161 -4.81517 0
-61.5449 -4.81631 0
-59.9249 -4.81718 0
-58.3037 -4.81778 0
-56.6853 -4.81833 0
-55.0649 -4.81763 0
-53.4479 -4.81349 0
-51.8347 -4.813 0
-50.2116 -4.81022 0
-48.5901 -4.8126 0
-46.9734 -4.81475 0
-45.3553 -4.81697 0
-43.7349 -4.81472 0
-42.1122 -4.81514 0
-40.4922 -4.81463 0
-38.8734 -4.81248 0
-37.2589 -4.81955 0
-35.6364 -4.81764 0
-34.0145 -4.81903 0
-32.3976 -4.82092 0
-30.7784 -4.82009 0
-29.1548 -4.81988 0
-27.5333 -4.81609 0
-25.9174 -4.81792 0
-24.2966 -4.81407 0
-22.6774 -4.81608 0
-21.0588 -4.81156 0
-19.4412 -4.80918 0
-17.8188 -4.80947 0
-16.2013 -4.81223 0
-14.5803 -4.81311 0
-12.961 -4.81564 0
-11.3403 -4.81675 0
-9.72291 -4.81942 0
-8.10301 -4.8161 0
-6.47928 -4.82041 0
-4.85475 -4.81704 0
-3.23783 -4.82045 0
-1.62002 -4.8169 0
0 -4.81171 0
-1083.76 103.774 0
-1084.05 93.5308 0
-1084.33 83.4461 0
-1084.6 73.584 0
-1084.84 63.9741 0
-1085.04 54.6757 0
-1085.19 45.7594 0
-1085.31 37.3155 0
-1085.41 29.3819 0
-1085.48 21.9751 0
-1085.5 15.1217 0
-1085.47 8.84271 0
-1085.38 3.16152 0
-1085.27 -1.94705 0
-1085.26 -6.65238 0
-1085.22 -11.0803 0
-1085.17 -15.2228 0
-1085.03 -19.0041 0
-1084.89 -22.3792 0
-1084.73 -25.3654 0
-1084.54 -27.9636 0
-1084.33 -30.1786 0
-1084.09 -32.0292 0
-1083.83 -33.5234 0
-1083.53 -34.7004 0
-1083.19 -35.5857 0
-1082.8 -36.1992 0
-1082.36 -36.5698 0
-1081.87 -36.7218 0
-1081.33 -36.6717 0
-1080.73 -36.4407 0
-1080.07 -36.0496 0
-1079.36 -35.5138 0
-1078.59 -34.8451 0
-1077.78 -34.0624 0
-1076.9 -33.1783 0
-1075.98 -32.2083 0
-1075 -31.1537 0
-1073.97 -30.0337 0
-1072.9 -28.859 0
-1071.78 -27.634 0
-1070.61 -26.3727 0
-1069.41 -25.0792 0
-1068.15 -23.7665 0
-1066.86 -22.4375 0
-1065.53 -21.1002 0
-1064.17 -19.7609 0
-1062.77 -18.4229 0
-1061.34 -17.0952 0
-1059.87 -15.7779 0
-1058.38 -14.4816 0
-1056.86 -13.2067 0
-1055.31 -11.9547 0
-1053.74 -10.7275 0
-1052.14 -9.53083 0
-1050.53 -8.36785 0
-1048.89 -7.23952 0
-1047.24 -6.14743 0
-1045.56 -5.09456 0
-1043.88 -4.08009 0
-1042.17 -3.10661 0
-1040.46 -2.17633 0
-1038.73 -1.28842 0
-1036.99 -0.444801 0
-1035.24 0.353789 0
-1033.48 1.10914 0
-1031.71 1.82316 0
-1029.93 2.49022 0
-1028.15 3.113 0
-1026.36 3.69218 0
-1024.57 4.22734 0
-1022.77 4.71649 0
-1020.97 5.16326 0
-1019.17 5.56847 0
-1017.36 5.93473 0
-1015.56 6.25726 0
-1013.75 6.5394 0
-1011.94 6.78408 0
-1010.14 6.99094 0
-1008.34 7.1602 0
-1006.54 7.29394 0
-1004.74 7.39237 0
-1002.94 7.45712 0
-1001.15 7.49192 0
-999.358 7.49147 0
-997.572 7.46224 0
-995.79 7.40355 0
-994.012 7.31563 0
-992.24 7.2019 0
-990.473 7.06568 0
-988.712 6.90492 0
-986.957 6.72015 0
-985.206 6.51409 0
-983.461 6.29149 0
-981.722 6.05004 0
-979.991 5.78947 0
-978.265 5.51213 0
-976.545 5.22277 0
-974.83 4.92041 0
-973.122 4.60521 0
-971.422 4.279 0
-969.727 3.94597 0
-968.038 3.60355 0
-966.355 3.25251 0
-964.677 2.89856 0
-963.007 2.54005 0
-961.344 2.17568 0
-959.684 1.80794 0
-958.031 1.43874 0
-956.384 1.0727 0
-954.741 0.704813 0
-953.104 0.338526 0
-951.472 -0.0257724 0
-949.845 -0.387093 0
-948.221 -0.743143 0
-946.603 -1.09542 0
-944.99 -1.44414 0
-943.381 -1.78584 0
-941.773 -2.12003 0
-940.173 -2.44643 0
-938.574 -2.76494 0
-936.978 -3.07577 0
-935.386 -3.37793 0
-933.797 -3.66792 0
-932.211 -3.95156 0
-930.625 -4.22415 0
-929.044 -4.48632 0
-927.465 -4.7383 0
-925.888 -4.97884 0
-924.311 -5.20794 0
-922.736 -5.42537 0
-921.164 -5.63302 0
-919.593 -5.82796 0
-918.022 -6.011 0
-916.453 -6.18424 0
-914.884 -6.34491 0
-913.316 -6.49336 0
-911.748 -6.63073 0
-910.179 -6.75635 0
-908.612 -6.87075 0
-907.042 -6.97503 0
-905.474 -7.06756 0
-903.907 -7.14966 0
-902.339 -7.21966 0
-900.77 -7.27854 0
-899.2 -7.32897 0
-897.629 -7.36764 0
-896.056 -7.39521 0
-894.483 -7.41655 0
-892.909 -7.42677 0
-891.334 -7.42757 0
-889.758 -7.42025 0
-888.18 -7.4052 0
-886.604 -7.38112 0
-885.024 -7.34753 0
-883.443 -7.30823 0
-881.862 -7.26001 0
-880.278 -7.20897 0
-878.693 -7.14972 0
-877.106 -7.08318 0
-875.518 -7.01106 0
-873.928 -6.93275 0
-872.336 -6.85077 0
-870.742 -6.76387 0
-869.146 -6.67356 0
-867.549 -6.57742 0
-865.952 -6.47881 0
-864.353 -6.37618 0
-862.753 -6.27158 0
-861.149 -6.16269 0
-859.545 -6.05112 0
-857.938 -5.93729 0
-856.331 -5.82023 0
-854.722 -5.70421 0
-853.111 -5.58583 0
-851.498 -5.46798 0
-849.885 -5.34797 0
-848.271 -5.22588 0
-846.655 -5.10745 0
-845.038 -4.9851 0
-843.419 -4.86355 0
-841.8 -4.74209 0
-840.179 -4.62175 0
-838.555 -4.50537 0
-836.932 -4.3874 0
-835.308 -4.26923 0
-833.683 -4.15618 0
-832.053 -4.04518 0
-830.427 -3.93402 0
-828.798 -3.82381 0
-827.17 -3.71885 0
-825.539 -3.61547 0
-823.907 -3.51337 0
-822.274 -3.4144 0
-820.642 -3.3196 0
-819.007 -3.22382 0
-817.374 -3.13202 0
-815.738 -3.04402 0
-814.104 -2.96078 0
-812.467 -2.87925 0
-810.831 -2.80254 0
-809.195 -2.72525 0
-807.558 -2.652 0
-805.922 -2.58259 0
-804.283 -2.51868 0
-802.646 -2.45725 0
-801.007 -2.39919 0
-799.37 -2.34407 0
-797.733 -2.28777 0
-796.094 -2.24154 0
-794.457 -2.19471 0
-792.818 -2.15511 0
-791.18 -2.11449 0
-789.541 -2.07962 0
-787.904 -2.04633 0
-786.266 -2.01675 0
-784.627 -1.98874 0
-782.99 -1.96502 0
-781.352 -1.94526 0
-779.715 -1.92945 0
-778.077 -1.914 0
-776.441 -1.90283 0
-774.805 -1.8941 0
-773.168 -1.88948 0
-771.531 -1.88745 0
-769.895 -1.88739 0
-768.26 -1.88981 0
-766.626 -1.89127 0
-764.992 -1.89789 0
-763.358 -1.90462 0
-761.725 -1.91804 0
-760.09 -1.93263 0
-758.457 -1.94632 0
-756.826 -1.96322 0
-755.194 -1.98164 0
-753.561 -2.00118 0
-751.929 -2.02537 0
-750.299 -2.04897 0
-748.668 -2.07213 0
-747.038 -2.09783 0
-745.409 -2.12567 0
-743.78 -2.15456 0
-742.151 -2.18495 0
-740.523 -2.21603 0
-738.896 -2.24919 0
-737.269 -2.28317 0
-735.642 -2.31526 0
-734.015 -2.3504 0
-732.389 -2.38448 0
-730.762 -2.42133 0
-729.137 -2.45814 0
-727.512 -2.49216 0
-725.888 -2.52654 0
-724.265 -2.56423 0
-722.642 -2.60247 0
-721.02 -2.64047 0
-719.397 -2.67637 0
-717.773 -2.71518 0
-716.15 -2.74874 0
-714.528 -2.78784 0
-712.91 -2.82333 0
-711.287 -2.86043 0
-709.666 -2.89492 0
-708.047 -2.93164 0
-706.426 -2.9649 0
-704.806 -2.99802 0
-703.186 -3.03185 0
-701.567 -3.06554 0
-699.949 -3.09957 0
-698.33 -3.1317 0
-696.711 -3.16013 0
-695.093 -3.19052 0
-693.474 -3.22144 0
-691.856 -3.24894 0
-690.24 -3.27669 0
-688.622 -3.30419 0
-687.006 -3.33124 0
-685.388 -3.35592 0
-683.774 -3.38085 0
-682.155 -3.40219 0
-680.538 -3.42486 0
-678.922 -3.4451 0
-677.305 -3.46741 0
-675.689 -3.48468 0
-674.073 -3.50228 0
-672.456 -3.52042 0
-670.84 -3.53604 0
-669.224 -3.55202 0
-667.607 -3.56707 0
-665.991 -3.58096 0
-664.373 -3.59335 0
-662.757 -3.60522 0
-661.141 -3.6171 0
-659.525 -3.62996 0
-657.908 -3.63705 0
-656.294 -3.64332 0
-654.675 -3.64655 0
-653.059 -3.65288 0
-651.442 -3.6572 0
-649.828 -3.66042 0
-648.208 -3.66349 0
-646.591 -3.66842 0
-644.974 -3.66914 0
-643.356 -3.67023 0
-641.741 -3.66931 0
-640.126 -3.66877 0
-638.51 -3.66751 0
-636.893 -3.66496 0
-635.275 -3.66306 0
-633.659 -3.65579 0
-632.042 -3.65135 0
-630.423 -3.64685 0
-628.805 -3.64057 0
-627.186 -3.63434 0
-625.569 -3.62877 0
-623.952 -3.62088 0
-622.331 -3.61428 0
-620.714 -3.60731 0
-619.094 -3.59913 0
-617.478 -3.59165 0
-615.859 -3.58097 0
-614.236 -3.5678 0
-612.617 -3.55833 0
-610.997 -3.55079 0
-609.376 -3.54094 0
-607.756 -3.52725 0
-606.137 -3.51549 0
-604.518 -3.50538 0
-602.9 -3.49384 0
-601.282 -3.47876 0
-599.66 -3.46512 0
-598.038 -3.45445 0
-596.416 -3.442 0
-594.798 -3.4294 0
-593.178 -3.41912 0
-591.559 -3.40642 0
-589.935 -3.39328 0
-588.315 -3.38159 0
-586.694 -3.36743 0
-585.072 -3.35821 0
-583.451 -3.34703 0
-581.829 -3.33273 0
-580.205 -3.32197 0
-578.582 -3.30817 0
-576.962 -3.29656 0
-575.341 -3.28422 0
-573.719 -3.26768 0
-572.096 -3.25933 0
-570.475 -3.24675 0
-568.853 -3.23665 0
-567.231 -3.22362 0
-565.61 -3.21532 0
-563.984 -3.20644 0
-562.363 -3.19829 0
-560.74 -3.18493 0
-559.121 -3.17656 0
-557.495 -3.16665 0
-555.872 -3.15627 0
-554.249 -3.14865 0
-552.627 -3.1402 0
-551.005 -3.1338 0
-549.382 -3.12441 0
-547.755 -3.11241 0
-546.132 -3.10721 0
-544.512 -3.0952 0
-542.89 -3.08837 0
-541.266 -3.07831 0
-539.645 -3.07644 0
-538.021 -3.07061 0
-536.396 -3.06789 0
-534.775 -3.05784 0
-533.152 -3.0544 0
-531.531 -3.05003 0
-529.909 -3.04645 0
-528.288 -3.03913 0
-526.665 -3.03588 0
-525.044 -3.03499 0
-523.418 -3.03481 0
-521.792 -3.03283 0
-520.169 -3.02834 0
-518.546 -3.02085 0
-516.925 -3.02229 0
-515.304 -3.02 0
-513.681 -3.01536 0
-512.057 -3.01305 0
-510.436 -3.01361 0
-508.813 -3.01331 0
-507.188 -3.01071 0
-505.564 -3.01442 0
-503.939 -3.0125 0
-502.32 -3.01317 0
-500.7 -3.01443 0
-499.078 -3.01691 0
-497.455 -3.01824 0
-495.831 -3.01747 0
-494.21 -3.01885 0
-492.586 -3.01974 0
-490.968 -3.02202 0
-489.345 -3.02737 0
-487.722 -3.03097 0
-486.098 -3.02948 0
-484.478 -3.03379 0
-482.857 -3.03378 0
-481.237 -3.03759 0
-479.612 -3.04264 0
-477.989 -3.04437 0
-476.367 -3.04803 0
-474.746 -3.05244 0
-473.125 -3.05469 0
-471.503 -3.05708 0
-469.88 -3.06601 0
-468.264 -3.06909 0
-466.641 -3.06904 0
-465.016 -3.07495 0
-463.397 -3.07765 0
-461.775 -3.08299 0
-460.153 -3.0862 0
-458.533 -3.08999 0
-456.91 -3.09318 0
-455.289 -3.09782 0
-453.667 -3.10082 0
-452.048 -3.10824 0
-450.431 -3.11077 0
-448.809 -3.11617 0
-447.189 -3.12231 0
-445.563 -3.1262 0
-443.944 -3.13197 0
-442.324 -3.13689 0
-440.704 -3.1415 0
-439.082 -3.14426 0
-437.464 -3.14582 0
-435.842 -3.14941 0
-434.221 -3.15282 0
-432.598 -3.15949 0
-430.975 -3.16327 0
-429.354 -3.16671 0
-427.732 -3.16973 0
-426.109 -3.17254 0
-424.488 -3.17442 0
-422.869 -3.17996 0
-421.25 -3.19087 0
-419.629 -3.19158 0
-418.012 -3.19194 0
-416.392 -3.19365 0
-414.774 -3.19651 0
-413.153 -3.20364 0
-411.531 -3.20559 0
-409.909 -3.20561 0
-408.289 -3.21011 0
-406.671 -3.21498 0
-405.053 -3.21359 0
-403.431 -3.2142 0
-401.81 -3.2149 0
-400.191 -3.21917 0
-398.568 -3.22339 0
-396.947 -3.22541 0
-395.329 -3.228 0
-393.709 -3.22899 0
-392.089 -3.23032 0
-390.468 -3.22962 0
-388.85 -3.23161 0
-387.23 -3.23422 0
-385.607 -3.23643 0
-383.987 -3.23766 0
-382.367 -3.23655 0
-380.743 -3.23947 0
-379.124 -3.23829 0
-377.507 -3.24132 0
-375.885 -3.24289 0
-374.263 -3.25223 0
-372.643 -3.25241 0
-371.026 -3.24834 0
-369.406 -3.25117 0
-367.786 -3.2501 0
-366.162 -3.25134 0
-364.539 -3.25826 0
-362.917 -3.25577 0
-361.299 -3.2538 0
-359.68 -3.25331 0
-358.062 -3.24969 0
-356.443 -3.24684 0
-354.817 -3.24818 0
-353.193 -3.24787 0
-351.574 -3.25122 0
-349.955 -3.25362 0
-348.337 -3.25099 0
-346.717 -3.25529 0
-345.096 -3.25552 0
-343.475 -3.24937 0
-341.853 -3.24989 0
-340.237 -3.24974 0
-338.619 -3.24898 0
-336.999 -3.24769 0
-335.379 -3.24667 0
-333.755 -3.24539 0
-332.135 -3.24848 0
-330.512 -3.24448 0
-328.893 -3.24241 0
-327.271 -3.24254 0
-325.649 -3.24394 0
-324.03 -3.24372 0
-322.41 -3.24211 0
-320.79 -3.24148 0
-319.174 -3.23635 0
-317.552 -3.23879 0
-315.927 -3.23686 0
-314.308 -3.23448 0
-312.686 -3.23218 0
-311.064 -3.23627 0
-309.448 -3.23211 0
-307.826 -3.22905 0
-306.206 -3.22339 0
-304.585 -3.2225 0
-302.965 -3.22037 0
-301.345 -3.22776 0
-299.726 -3.22326 0
-298.106 -3.22168 0
-296.487 -3.21763 0
-294.866 -3.21944 0
-293.248 -3.21614 0
-291.626 -3.21632 0
-290.01 -3.21515 0
-288.389 -3.21694 0
-286.767 -3.21015 0
-285.148 -3.20712 0
-283.53 -3.20552 0
-281.907 -3.20525 0
-280.284 -3.20749 0
-278.663 -3.20917 0
-277.042 -3.20389 0
-275.42 -3.20328 0
-273.804 -3.19985 0
-272.181 -3.19833 0
-270.56 -3.19656 0
-268.939 -3.1977 0
-267.312 -3.19296 0
-265.691 -3.19032 0
-264.071 -3.18955 0
-262.451 -3.19037 0
-260.832 -3.19403 0
-259.209 -3.19494 0
-257.589 -3.19848 0
-255.967 -3.19461 0
-254.345 -3.18978 0
-252.728 -3.19201 0
-251.11 -3.19299 0
-249.489 -3.19398 0
-247.867 -3.18818 0
-246.248 -3.1911 0
-244.623 -3.19252 0
-243.001 -3.18574 0
-241.383 -3.18885 0
-239.763 -3.1863 0
-238.141 -3.18647 0
-236.518 -3.18479 0
-234.897 -3.18452 0
-233.28 -3.18472 0
-231.658 -3.18424 0
-230.042 -3.18605 0
-228.422 -3.18839 0
-226.803 -3.1873 0
-225.178 -3.18651 0
-223.559 -3.18209 0
-221.937 -3.18225 0
-220.318 -3.17887 0
-218.696 -3.17929 0
-217.077 -3.17676 0
-215.455 -3.18129 0
-213.834 -3.17997 0
-212.212 -3.17523 0
-210.596 -3.17396 0
-208.973 -3.17074 0
-207.354 -3.17537 0
-205.731 -3.17742 0
-204.113 -3.1772 0
-202.493 -3.17782 0
-200.871 -3.17862 0
-199.253 -3.17312 0
-197.63 -3.17987 0
-196.01 -3.17475 0
-194.388 -3.17599 0
-192.771 -3.17593 0
-191.151 -3.17928 0
-189.529 -3.17985 0
-187.908 -3.17761 0
-186.288 -3.17703 0
-184.666 -3.17934 0
-183.047 -3.17707 0
-181.43 -3.1746 0
-179.808 -3.17766 0
-178.186 -3.17485 0
-176.569 -3.17115 0
-174.943 -3.1736 0
-173.326 -3.17431 0
-171.704 -3.18066 0
-170.088 -3.17828 0
-168.468 -3.18106 0
-166.843 -3.18057 0
-165.223 -3.18147 0
-163.604 -3.18205 0
-161.986 -3.18273 0
-160.363 -3.18426 0
-158.746 -3.18295 0
-157.126 -3.18344 0
-155.507 -3.18245 0
-153.882 -3.19017 0
-152.267 -3.18773 0
-150.645 -3.18581 0
-149.023 -3.18676 0
-147.406 -3.18812 0
-145.785 -3.18599 0
-144.164 -3.18775 0
-142.545 -3.1881 0
-140.924 -3.19264 0
-139.307 -3.18998 0
-137.685 -3.19285 0
-136.063 -3.19791 0
-134.447 -3.19817 0
-132.824 -3.19756 0
-131.201 -3.19958 0
-129.581 -3.19895 0
-127.962 -3.19866 0
-126.342 -3.1959 0
-124.722 -3.19616 0
-123.103 -3.19513 0
-121.484 -3.19641 0
-119.872 -3.19576 0
-118.252 -3.19656 0
-116.629 -3.20038 0
-115.01 -3.19816 0
-113.386 -3.1984 0
-111.764 -3.19643 0
-110.145 -3.19845 0
-108.522 -3.1959 0
-106.905 -3.19876 0
-105.284 -3.20269 0
-103.663 -3.20451 0
-102.042 -3.2046 0
-100.421 -3.20484 0
-98.8038 -3.20125 0
-97.1852 -3.20117 0
-95.5659 -3.20591 0
-93.9453 -3.2038 0
-92.3248 -3.20231 0
-90.7067 -3.20505 0
-89.0814 -3.2016 0
-87.4628 -3.20298 0
-85.8464 -3.205 0
-84.2287 -3.20355 0
-82.6075 -3.20416 0
-80.985 -3.20688 0
-79.3683 -3.20713 0
-77.7458 -3.20733 0
-76.1255 -3.20556 0
-74.5045 -3.20657 0
-72.8878 -3.20556 0
-71.267 -3.20619 0
-69.6481 -3.20731 0
-68.0265 -3.20958 0
-66.4058 -3.20679 0
-64.7877 -3.21055 0
-63.1646 -3.21042 0
-61.5446 -3.21283 0
-59.9242 -3.20943 0
-58.3063 -3.21042 0
-56.6843 -3.21312 0
-55.0666 -3.21346 0
-53.4487 -3.20928 0
-51.8284 -3.20852 0
-50.2093 -3.20587 0
-48.5903 -3.20817 0
-46.973 -3.21144 0
-45.3525 -3.20912 0
-43.734 -3.20841 0
-42.1127 -3.20865 0
-40.4928 -3.21107 0
-38.8749 -3.21056 0
-37.2561 -3.21245 0
-35.637 -3.21134 0
-34.0141 -3.21217 0
-32.3949 -3.213 0
-30.7744 -3.21331 0
-29.1521 -3.21235 0
-27.5357 -3.21225 0
-25.9181 -3.21061 0
-24.2961 -3.20952 0
-22.6784 -3.20878 0
-21.0577 -3.20516 0
-19.4369 -3.20491 0
-17.8187 -3.20788 0
-16.1995 -3.20552 0
-14.5809 -3.20842 0
-12.9615 -3.20973 0
-11.34 -3.21144 0
-9.72113 -3.21485 0
-8.09877 -3.21089 0
-6.47751 -3.21137 0
-4.85941 -3.21242 0
-3.24169 -3.21346 0
-1.61943 -3.21234 0
0 -3.20875 0
-1094.21 104.553 0
-1094.1 94.0899 0
-1094.15 83.9997 0
-1094.16 74.1477 0
-1094.1 64.5613 0
-1093.96 55.2867 0
-1093.73 46.3897 0
-1093.42 37.9403 0
-1093.06 29.9982 0
-1092.63 22.5902 0
-1092.14 15.7428 0
-1091.61 9.47339 0
-1091.04 3.77015 0
-1090.52 -1.437 0
-1090.07 -6.24067 0
-1089.66 -10.6814 0
-1089.24 -14.795 0
-1088.77 -18.5461 0
-1088.25 -21.9235 0
-1087.7 -24.9092 0
-1087.14 -27.5051 0
-1086.56 -29.7163 0
-1085.96 -31.558 0
-1085.36 -33.0473 0
-1084.75 -34.2076 0
-1084.11 -35.0643 0
-1083.46 -35.6515 0
-1082.78 -35.9865 0
-1082.07 -36.1016 0
-1081.33 -36.0101 0
-1080.55 -35.7356 0
-1079.74 -35.297 0
-1078.88 -34.7148 0
-1077.99 -34.0022 0
-1077.06 -33.1734 0
-1076.09 -32.2412 0
-1075.07 -31.2212 0
-1074.02 -30.1247 0
-1072.93 -28.9618 0
-1071.8 -27.7435 0
-1070.63 -26.4769 0
-1069.43 -25.1738 0
-1068.19 -23.8425 0
-1066.91 -22.4917 0
-1065.61 -21.1263 0
-1064.27 -19.7551 0
-1062.9 -18.3815 0
-1061.51 -17.0138 0
-1060.08 -15.6555 0
-1058.63 -14.3125 0
-1057.15 -12.9887 0
-1055.65 -11.6874 0
-1054.12 -10.4113 0
-1052.58 -9.1633 0
-1051.01 -7.94633 0
-1049.43 -6.76414 0
-1047.83 -5.61714 0
-1046.21 -4.50894 0
-1044.57 -3.44063 0
-1042.92 -2.41077 0
-1041.25 -1.42439 0
-1039.58 -0.481051 0
-1037.89 0.415932 0
-1036.19 1.27098 0
-1034.48 2.07804 0
-1032.76 2.84214 0
-1031.04 3.56272 0
-1029.3 4.23738 0
-1027.56 4.86487 0
-1025.82 5.45029 0
-1024.07 5.98836 0
-1022.31 6.4816 0
-1020.55 6.93074 0
-1018.79 7.33996 0
-1017.02 7.70429 0
-1015.26 8.0299 0
-1013.49 8.31211 0
-1011.72 8.55595 0
-1009.95 8.76199 0
-1008.19 8.92947 0
-1006.42 9.06108 0
-1004.65 9.15737 0
-1002.89 9.22014 0
-1001.13 9.25059 0
-999.367 9.24872 0
-997.609 9.21418 0
-995.856 9.15304 0
-994.105 9.06195 0
-992.357 8.94317 0
-990.614 8.80208 0
-988.875 8.63617 0
-987.141 8.44646 0
-985.41 8.23696 0
-983.684 8.00721 0
-981.963 7.76006 0
-980.247 7.49556 0
-978.534 7.21117 0
-976.827 6.91764 0
-975.126 6.60934 0
-973.429 6.28898 0
-971.738 5.95689 0
-970.051 5.61759 0
-968.369 5.26911 0
-966.694 4.91401 0