<?xml version="1.0"?>
<VTKFile type="StructuredGrid"  version="0.1" byte_order="LittleEndian" compressor="vtkZLibDataCompressor">
  <StructuredGrid WholeExtent="0 700 0 30 0 0">
    <Piece Extent="0 700 0 30 0 0">
      <PointData Vectors="Velocity">
        <DataArray type="Float32" Name="Velocity" NumberOfComponents="3" format="ascii">
-1072.18 102.219 0
-1072.59 92.1128 0
-1073.04 82.1347 0
-1073.52 72.374 0
-1074.02 62.8688 0
-1074.56 53.6872 0
-1075.15 44.9094 0
-1075.77 36.5972 0
-1076.39 28.7812 0
-1077.01 21.4879 0
-1077.6 14.7361 0
-1078.17 8.54687 0
-1078.67 2.93966 0
-1079.06 -2.11807 0
-1079.36 -6.7476 0
-1079.53 -11.103 0
-1079.79 -15.1688 0
-1080.04 -18.8722 0
-1080.28 -22.1893 0
-1080.5 -25.1159 0
-1080.69 -27.6565 0
-1080.85 -29.8228 0
-1080.96 -31.6326 0
-1081.02 -33.1092 0
-1081.02 -34.2752 0
-1080.95 -35.1566 0
-1080.81 -35.7798 0
-1080.6 -36.1669 0
-1080.31 -36.3399 0
-1079.94 -36.3169 0
-1079.51 -36.1207 0
-1079 -35.7626 0
-1078.41 -35.2645 0
-1077.76 -34.6377 0
-1077.04 -33.8996 0
-1076.25 -33.0584 0
-1075.4 -32.1303 0
-1074.49 -31.1264 0
-1073.52 -30.0565 0
-1072.48 -28.9314 0
-1071.4 -27.7592 0
-1070.26 -26.5489 0
-1069.06 -25.3097 0
-1067.82 -24.049 0
-1066.54 -22.7737 0
-1065.21 -21.4894 0
-1063.84 -20.2023 0
-1062.43 -18.9193 0
-1060.98 -17.6437 0
-1059.49 -16.3795 0
-1057.98 -15.1318 0
-1056.43 -13.9045 0
-1054.85 -12.7015 0
-1053.25 -11.526 0
-1051.62 -10.3805 0
-1049.97 -9.26489 0
-1048.3 -8.18495 0
-1046.61 -7.14031 0
-1044.89 -6.13391 0
-1043.17 -5.16603 0
-1041.42 -4.23814 0
-1039.66 -3.35126 0
-1037.89 -2.50751 0
-1036.11 -1.70398 0
-1034.31 -0.943388 0
-1032.51 -0.227754 0
-1030.7 0.445909 0
-1028.89 1.07598 0
-1027.06 1.66162 0
-1025.23 2.20569 0
-1023.4 2.70655 0
-1021.57 3.16486 0
-1019.73 3.58264 0
-1017.89 3.95882 0
-1016.05 4.2945 0
-1014.21 4.58841 0
-1012.37 4.84578 0
-1010.53 5.06406 0
-1008.7 5.24676 0
-1006.87 5.39337 0
-1005.04 5.50613 0
-1003.21 5.58471 0
-1001.39 5.62878 0
-999.572 5.64233 0
-997.76 5.62694 0
-995.953 5.58175 0
-994.153 5.50876 0
-992.358 5.40958 0
-990.568 5.28692 0
-988.787 5.13838 0
-987.011 4.96972 0
-985.242 4.77904 0
-983.48 4.56826 0
-981.725 4.33693 0
-979.979 4.09016 0
-978.239 3.82516 0
-976.505 3.5487 0
-974.78 3.2577 0
-973.062 2.95481 0
-971.353 2.64206 0
-969.65 2.31786 0
-967.955 1.98561 0
-966.265 1.6477 0
-964.584 1.30214 0
-962.912 0.950986 0
-961.246 0.59849 0
-959.584 0.240397 0
-957.931 -0.117066 0
-956.285 -0.478199 0
-954.645 -0.83726 0
-953.01 -1.19672 0
-951.383 -1.55154 0
-949.76 -1.90411 0
-948.143 -2.25462 0
-946.53 -2.60008 0
-944.923 -2.94118 0
-943.32 -3.27561 0
-941.723 -3.60351 0
-940.13 -3.92557 0
-938.541 -4.23835 0
-936.956 -4.54378 0
-935.376 -4.84056 0
-933.796 -5.12832 0
-932.221 -5.40747 0
-930.648 -5.67427 0
-929.079 -5.93265 0
-927.512 -6.17959 0
-925.947 -6.41786 0
-924.383 -6.64477 0
-922.822 -6.85964 0
-921.261 -7.06439 0
-919.704 -7.25615 0
-918.144 -7.43787 0
-916.588 -7.6093 0
-915.033 -7.76682 0
-913.477 -7.9149 0
-911.921 -8.05002 0
-910.365 -8.17689 0
-908.813 -8.28832 0
-907.257 -8.39204 0
-905.701 -8.48393 0
-904.146 -8.56531 0
-902.59 -8.63328 0
-901.032 -8.69219 0
-899.474 -8.74312 0
-897.914 -8.78335 0
-896.354 -8.81418 0
-894.793 -8.8343 0
-893.229 -8.84307 0
-891.666 -8.84481 0
-890.102 -8.83994 0
-888.533 -8.82531 0
-886.966 -8.80221 0
-885.395 -8.77191 0
-883.824 -8.73515 0
-882.249 -8.6928 0
-880.672 -8.64186 0
-879.095 -8.58287 0
-877.516 -8.51994 0
-875.936 -8.45224 0
-874.354 -8.37472 0
-872.77 -8.29316 0
-871.181 -8.21121 0
-869.591 -8.12103 0
-868 -8.03008 0
-866.407 -7.93403 0
-864.813 -7.83107 0
-863.219 -7.73036 0
-861.619 -7.62642 0
-860.019 -7.51831 0
-858.418 -7.4075 0
-856.813 -7.29791 0
-855.209 -7.18451 0
-853.599 -7.0702 0
-851.992 -6.95539 0
-850.382 -6.83789 0
-848.768 -6.72192 0
-847.154 -6.60345 0
-845.539 -6.48806 0
-843.923 -6.37274 0
-842.305 -6.25323 0
-840.685 -6.1403 0
-839.066 -6.02565 0
-837.443 -5.9131 0
-835.816 -5.80116 0
-834.192 -5.69138 0
-832.566 -5.58507 0
-830.94 -5.48003 0
-829.313 -5.37461 0
-827.684 -5.27104 0
-826.052 -5.17015 0
-824.419 -5.06912 0
-822.787 -4.97406 0
-821.154 -4.88304 0
-819.519 -4.79123 0
-817.884 -4.70546 0
-816.248 -4.62256 0
-814.612 -4.54039 0
-812.977 -4.4635 0
-811.342 -4.38532 0
-809.706 -4.31107 0
-808.067 -4.24473 0
-806.428 -4.18166 0
-804.79 -4.11975 0
-803.151 -4.06026 0
-801.51 -4.0052 0
-799.872 -3.95347 0
-798.234 -3.90345 0
-796.597 -3.85809 0
-794.956 -3.81567 0
-793.319 -3.77617 0
-791.682 -3.73989 0
-790.043 -3.70723 0
-788.405 -3.67766 0
-786.764 -3.65095 0
-785.125 -3.62598 0
-783.487 -3.6046 0
-781.852 -3.58479 0
-780.216 -3.57536 0
-778.577 -3.56279 0
-776.938 -3.55378 0
-775.304 -3.54861 0
-773.668 -3.54373 0
-772.03 -3.54158 0
-770.395 -3.54164 0
-768.76 -3.54626 0
-767.126 -3.55332 0
-765.492 -3.56354 0
-763.86 -3.57109 0
-762.225 -3.58143 0
-760.593 -3.59845 0
-758.961 -3.61554 0
-757.33 -3.63323 0
-755.698 -3.65001 0
-754.067 -3.67299 0
-752.436 -3.69618 0
-750.808 -3.71967 0
-749.18 -3.74659 0
-747.553 -3.77367 0
-745.925 -3.8009 0
-744.299 -3.83093 0
-742.673 -3.86154 0
-741.045 -3.89273 0
-739.419 -3.9242 0
-737.793 -3.95525 0
-736.168 -3.98914 0
-734.545 -4.02544 0
-732.925 -4.05787 0
-731.302 -4.09434 0
-729.678 -4.12766 0
-728.055 -4.16248 0
-726.435 -4.19647 0
-724.812 -4.23279 0
-723.19 -4.26751 0
-721.572 -4.30147 0
-719.955 -4.33914 0
-718.337 -4.37165 0
-716.718 -4.40848 0
-715.098 -4.44355 0
-713.479 -4.47883 0
-711.861 -4.51291 0
-710.24 -4.54468 0
-708.626 -4.5768 0
-707.01 -4.61094 0
-705.393 -4.63958 0
-703.778 -4.67344 0
-702.161 -4.70675 0
-700.546 -4.73684 0
-698.928 -4.76914 0
-697.315 -4.79738 0
-695.699 -4.82639 0
-694.083 -4.85223 0
-692.468 -4.87851 0
-690.853 -4.90363 0
-689.239 -4.92657 0
-687.627 -4.95105 0
-686.012 -4.9751 0
-684.399 -5.00017 0
-682.785 -5.02234 0
-681.172 -5.04171 0
-679.557 -5.06196 0
-677.946 -5.08119 0
-676.334 -5.09643 0
-674.719 -5.11371 0
-673.107 -5.12925 0
-671.495 -5.14741 0
-669.883 -5.15635 0
-668.269 -5.16737 0
-666.658 -5.17858 0
-665.044 -5.1915 0
-663.429 -5.20353 0
-661.812 -5.20874 0
-660.198 -5.21946 0
-658.585 -5.22664 0
-656.973 -5.23723 0
-655.358 -5.23994 0
-653.744 -5.24402 0
-652.131 -5.24816 0
-650.517 -5.25201 0
-648.906 -5.24842 0
-647.295 -5.2516 0
-645.682 -5.25115 0
-644.065 -5.25119 0
-642.453 -5.2498 0
-640.837 -5.24662 0
-639.224 -5.24295 0
-637.606 -5.23729 0
-635.994 -5.23508 0
-634.378 -5.232 0
-632.764 -5.2252 0
-631.147 -5.2179 0
-629.532 -5.21469 0
-627.918 -5.20962 0
-626.3 -5.19908 0
-624.687 -5.19389 0
-623.072 -5.18596 0
-621.455 -5.17914 0
-619.839 -5.16783 0
-618.228 -5.15929 0
-616.612 -5.14368 0
-614.995 -5.13238 0
-613.378 -5.1207 0
-611.758 -5.11195 0
-610.139 -5.10237 0
-608.525 -5.08809 0
-606.909 -5.07643 0
-605.289 -5.06538 0
-603.671 -5.0459 0
-602.05 -5.03889 0
-600.432 -5.02521 0
-598.813 -5.013 0
-597.199 -5.00008 0
-595.581 -4.98708 0
-593.961 -4.97689 0
-592.344 -4.96714 0
-590.722 -4.95434 0
-589.103 -4.94079 0
-587.483 -4.92902 0
-585.864 -4.9148 0
-584.244 -4.90213 0
-582.626 -4.89351 0
-581.007 -4.88046 0
-579.387 -4.86717 0
-577.77 -4.85589 0
-576.151 -4.84476 0
-574.53 -4.83027 0
-572.912 -4.81947 0
-571.292 -4.80781 0
-569.671 -4.79727 0
-568.05 -4.78288 0
-566.427 -4.77774 0
-564.805 -4.76265 0
-563.184 -4.75618 0
-561.566 -4.74566 0
-559.944 -4.73894 0
-558.327 -4.73172 0
-556.706 -4.71789 0
-555.083 -4.71452 0
-553.46 -4.70015 0
-551.84 -4.69318 0
-550.218 -4.68631 0
-548.596 -4.67811 0
-546.973 -4.67454 0
-545.352 -4.66399 0
-543.732 -4.65691 0
-542.112 -4.6527 0
-540.489 -4.65076 0
-538.87 -4.64411 0
-537.249 -4.63534 0
-535.627 -4.62946 0
-534.008 -4.62621 0
-532.386 -4.62359 0
-530.768 -4.62176 0
-529.148 -4.61707 0
-527.528 -4.61314 0
-525.91 -4.61213 0
-524.289 -4.60655 0
-522.667 -4.60203 0
-521.046 -4.5968 0
-519.427 -4.59767 0
-517.803 -4.59708 0
-516.181 -4.59919 0
-514.563 -4.59213 0
-512.944 -4.59068 0
-511.321 -4.59021 0
-509.702 -4.5909 0
-508.081 -4.59305 0
-506.461 -4.59294 0
-504.84 -4.59525 0
-503.224 -4.60037 0
-501.605 -4.6016 0
-499.985 -4.59763 0
-498.365 -4.59807 0
-496.743 -4.60109 0
-495.117 -4.60221 0
-493.502 -4.60269 0
-491.881 -4.60353 0
-490.261 -4.60865 0
-488.64 -4.61168 0
-487.021 -4.61821 0
-485.405 -4.61955 0
-483.79 -4.62032 0
-482.166 -4.62041 0
-480.54 -4.62071 0
-478.925 -4.62828 0
-477.306 -4.62928 0
-475.687 -4.63557 0
-474.063 -4.63826 0
-472.447 -4.64463 0
-470.828 -4.64803 0
-469.207 -4.64552 0
-467.587 -4.65446 0
-465.971 -4.66153 0
-464.349 -4.661 0
-462.733 -4.66644 0
-461.114 -4.66887 0
-459.492 -4.67882 0
-457.874 -4.68178 0
-456.254 -4.69096 0
-454.635 -4.69749 0
-453.02 -4.68969 0
-451.399 -4.69437 0
-449.781 -4.69851 0
-448.164 -4.70255 0
-446.541 -4.71304 0
-444.925 -4.71611 0
-443.304 -4.72102 0
-441.691 -4.72746 0
-440.068 -4.72834 0
-438.451 -4.73932 0
-436.831 -4.73992 0
-435.211 -4.74521 0
-433.588 -4.74616 0
-431.97 -4.75257 0
-430.354 -4.75473 0
-428.734 -4.76139 0
-427.122 -4.75786 0
-425.504 -4.76195 0
-423.882 -4.76213 0
-422.264 -4.76999 0
-420.646 -4.77022 0
-419.029 -4.77826 0
-417.407 -4.78168 0
-415.79 -4.7759 0
-414.172 -4.78066 0
-412.554 -4.78573 0
-410.936 -4.78507 0
-409.318 -4.78662 0
-407.695 -4.79454 0
-406.079 -4.79791 0
-404.464 -4.79998 0
-402.848 -4.80547 0
-401.231 -4.80868 0
-399.61 -4.8143 0
-397.997 -4.80919 0
-396.377 -4.81161 0
-394.76 -4.80758 0
-393.137 -4.8142 0
-391.518 -4.81739 0
-389.901 -4.82195 0
-388.286 -4.81983 0
-386.668 -4.82419 0
-385.05 -4.82176 0
-383.432 -4.82165 0
-381.813 -4.81676 0
-380.191 -4.82353 0
-378.581 -4.82711 0
-376.963 -4.83053 0
-375.344 -4.82783 0
-373.732 -4.83085 0
-372.113 -4.83217 0
-370.492 -4.82296 0
-368.878 -4.83027 0
-367.252 -4.82747 0
-365.635 -4.83395 0
-364.017 -4.83181 0
-362.399 -4.82387 0
-360.782 -4.8311 0
-359.165 -4.828 0
-357.544 -4.83478 0
-355.928 -4.83024 0
-354.311 -4.83433 0
-352.691 -4.83444 0
-351.076 -4.83317 0
-349.46 -4.82419 0
-347.841 -4.82958 0
-346.224 -4.83078 0
-344.604 -4.83168 0
-342.99 -4.83305 0
-341.37 -4.83121 0
-339.756 -4.82467 0
-338.131 -4.82618 0
-336.509 -4.8279 0
-334.894 -4.82779 0
-333.277 -4.8318 0
-331.664 -4.82722 0
-330.041 -4.82538 0
-328.421 -4.821 0
-326.804 -4.82619 0
-325.184 -4.82695 0
-323.56 -4.82668 0
-321.945 -4.82337 0
-320.326 -4.82064 0
-318.703 -4.82023 0
-317.089 -4.81477 0
-315.472 -4.8181 0
-313.853 -4.81597 0
-312.232 -4.8131 0
-310.618 -4.81009 0
-309 -4.81381 0
-307.383 -4.81209 0
-305.77 -4.80716 0
-304.151 -4.8143 0
-302.531 -4.81151 0
-300.913 -4.80983 0
-299.298 -4.80925 0
-297.682 -4.8055 0
-296.064 -4.801 0
-294.44 -4.8093 0
-292.824 -4.80503 0
-291.205 -4.80331 0
-289.589 -4.80415 0
-287.968 -4.79947 0
-286.35 -4.80056 0
-284.73 -4.8021 0
-283.113 -4.8006 0
-281.494 -4.79926 0
-279.876 -4.80225 0
-278.257 -4.80156 0
-276.642 -4.80037 0
-275.028 -4.79574 0
-273.407 -4.79445 0
-271.789 -4.79524 0
-270.174 -4.7962 0
-268.556 -4.7907 0
-266.935 -4.78783 0
-265.317 -4.78836 0
-263.698 -4.78747 0
-262.077 -4.78673 0
-260.462 -4.78609 0
-258.841 -4.78012 0
-257.219 -4.7792 0
-255.61 -4.78062 0
-253.992 -4.7832 0
-252.373 -4.78203 0
-250.747 -4.78381 0
-249.125 -4.77901 0
-247.509 -4.77934 0
-245.889 -4.78066 0
-244.274 -4.77915 0
-242.655 -4.78017 0
-241.036 -4.78015 0
-239.418 -4.78084 0
-237.801 -4.78516 0
-236.183 -4.78762 0
-234.565 -4.77592 0
-232.947 -4.77597 0
-231.33 -4.78168 0
-229.709 -4.78151 0
-228.091 -4.78479 0
-226.476 -4.78237 0
-224.855 -4.78253 0
-223.234 -4.78566 0
-221.619 -4.77358 0
-219.999 -4.78176 0
-218.381 -4.7779 0
-216.761 -4.77262 0
-215.141 -4.777 0
-213.522 -4.78065 0
-211.905 -4.77755 0
-210.285 -4.77734 0
-208.674 -4.78239 0
-207.062 -4.78001 0
-205.439 -4.78023 0
-203.823 -4.78197 0
-202.204 -4.7837 0
-200.587 -4.78546 0
-198.968 -4.78869 0
-197.352 -4.78254 0
-195.734 -4.77627 0
-194.115 -4.7849 0
-192.494 -4.78529 0
-190.882 -4.78396 0
-189.26 -4.78971 0
-187.646 -4.79244 0
-186.025 -4.78465 0
-184.408 -4.78444 0
-182.795 -4.78169 0
-181.174 -4.78052 0
-179.553 -4.78134 0
-177.933 -4.78982 0
-176.311 -4.78854 0
-174.698 -4.78673 0
-173.08 -4.78094 0
-171.464 -4.7822 0
-169.842 -4.785 0
-168.226 -4.78888 0
-166.608 -4.7859 0
-164.987 -4.79456 0
-163.369 -4.79692 0
-161.758 -4.79847 0
-160.139 -4.79846 0
-158.52 -4.80379 0
-156.901 -4.79421 0
-155.285 -4.79384 0
-153.665 -4.79618 0
-152.047 -4.79952 0
-150.436 -4.80215 0
-148.823 -4.80034 0
-147.204 -4.80045 0
-145.585 -4.79757 0
-143.966 -4.79877 0
-142.346 -4.79423 0
-140.723 -4.79438 0
-139.108 -4.80397 0
-137.492 -4.80137 0
-135.872 -4.79663 0
-134.253 -4.80592 0
-132.642 -4.80319 0
-131.024 -4.80105 0
-129.403 -4.79793 0
-127.787 -4.80129 0
-126.17 -4.79715 0
-124.552 -4.80199 0
-122.933 -4.7978 0
-121.313 -4.80071 0
-119.699 -4.8028 0
-118.084 -4.80568 0
-116.465 -4.8014 0
-114.847 -4.80158 0
-113.227 -4.8007 0
-111.608 -4.80199 0
-109.986 -4.80534 0
-108.374 -4.80828 0
-106.759 -4.7996 0
-105.14 -4.80093 0
-103.522 -4.80021 0
-101.903 -4.80487 0
-100.285 -4.80733 0
-98.6673 -4.80551 0
-97.0466 -4.80637 0
-95.4335 -4.80288 0
-93.8175 -4.79758 0
-92.1921 -4.80326 0
-90.5765 -4.80676 0
-88.9623 -4.80782 0
-87.3483 -4.80791 0
-85.7278 -4.80443 0
-84.1118 -4.80715 0
-82.4949 -4.80632 0
-80.8818 -4.80183 0
-79.2616 -4.8003 0
-77.6405 -4.79997 0
-76.0268 -4.80497 0
-74.4042 -4.80682 0
-72.7904 -4.80731 0
-71.1762 -4.80693 0
-69.5574 -4.80693 0
-67.9432 -4.80818 0
-66.3231 -4.80744 0
-64.7043 -4.79846 0
-63.0844 -4.80243 0
-61.4675 -4.80085 0
-59.8507 -4.80481 0
-58.2331 -4.80317 0
-56.6143 -4.80274 0
-54.9921 -4.80548 0
-53.3759 -4.80351 0
-51.7594 -4.80679 0
-50.1401 -4.80727 0
-48.5212 -4.80612 0
-46.9047 -4.80651 0
-45.2903 -4.80563 0
-43.6704 -4.80857 0
-42.052 -4.80534 0
-40.4314 -4.80925 0
-38.8172 -4.81168 0
-37.1993 -4.80866 0
-35.5826 -4.80768 0
-33.9677 -4.80425 0
-32.3486 -4.80757 0
-30.7313 -4.80511 0
-29.1122 -4.8005 0
-27.4953 -4.80217 0
-25.8785 -4.80906 0
-24.2609 -4.80862 0
-22.6406 -4.81137 0
-21.0231 -4.80931 0
-19.4094 -4.80999 0
-17.7914 -4.80858 0
-16.1707 -4.80649 0
-14.5568 -4.80801 0
-12.9429 -4.80724 0
-11.3232 -4.81077 0
-9.70652 -4.81096 0
-8.08716 -4.80557 0
-6.46979 -4.80524 0
-4.8524 -4.80863 0
-3.23823 -4.8088 0
-1.61654 -4.80978 0
0 -4.80733 0
-1082.29 102.653 0
-1082.58 92.495 0
-1082.87 82.4875 0
-1083.14 72.7034 0
-1083.39 63.1687 0
-1083.58 53.9426 0
-1083.74 45.1125 0
-1083.87 36.7497 0
-1083.98 28.8953 0
-1084.04 21.5757 0
-1084.07 14.8097 0
-1084.03 8.62048 0
-1083.94 3.02107 0
-1083.85 -2.0262 0
-1083.81 -6.65387 0
-1083.81 -11.016 0
-1083.72 -15.0913 0
-1083.6 -18.7989 0
-1083.46 -22.1182 0
-1083.3 -25.042 0
-1083.11 -27.5737 0
-1082.9 -29.7236 0
-1082.66 -31.509 0
-1082.39 -32.9503 0
-1082.09 -34.0733 0
-1081.74 -34.9059 0
-1081.35 -35.4735 0
-1080.9 -35.8021 0
-1080.41 -35.9136 0
-1079.86 -35.8293 0
-1079.25 -35.5696 0
-1078.59 -35.1498 0
-1077.87 -34.5896 0
-1077.09 -33.9017 0
-1076.27 -33.1031 0
-1075.38 -32.2022 0
-1074.45 -31.2171 0
-1073.47 -30.1571 0
-1072.43 -29.0326 0
-1071.35 -27.8546 0
-1070.22 -26.6326 0
-1069.05 -25.3741 0
-1067.83 -24.0884 0
-1066.57 -22.7836 0
-1065.28 -21.4659 0
-1063.94 -20.1411 0
-1062.57 -18.8165 0
-1061.16 -17.4971 0
-1059.73 -16.1879 0
-1058.26 -14.8927 0
-1056.76 -13.6155 0
-1055.24 -12.3601 0
-1053.68 -11.1304 0
-1052.11 -9.93083 0
-1050.51 -8.76208 0
-1048.89 -7.62631 0
-1047.26 -6.5259 0
-1045.6 -5.4639 0
-1043.93 -4.44022 0
-1042.24 -3.4571 0
-1040.53 -2.51573 0
-1038.81 -1.6165 0
-1037.08 -0.760504 0
-1035.34 0.0522174 0
-1033.59 0.821411 0
-1031.83 1.54602 0
-1030.07 2.22674 0
-1028.29 2.86224 0
-1026.51 3.45334 0
-1024.72 4.0017 0
-1022.93 4.50634 0
-1021.14 4.96641 0
-1019.34 5.3869 0
-1017.55 5.76351 0
-1015.74 6.09937 0
-1013.94 6.39294 0
-1012.14 6.64899 0
-1010.34 6.86657 0
-1008.54 7.04657 0
-1006.74 7.19205 0
-1004.95 7.29994 0
-1003.16 7.37506 0
-1001.37 7.41635 0
-999.579 7.42537 0
-997.795 7.40456 0
-996.016 7.35411 0
-994.241 7.27691 0
-992.472 7.17197 0
-990.706 7.04261 0
-988.947 6.88964 0
-987.192 6.71417 0
-985.443 6.51703 0
-983.701 6.29965 0
-981.965 6.06221 0
-980.233 5.8086 0
-978.507 5.53842 0
-976.789 5.2537 0
-975.076 4.95738 0
-973.369 4.64734 0
-971.669 4.32779 0
-969.975 3.99612 0
-968.286 3.65784 0
-966.605 3.31215 0
-964.93 2.95998 0
-963.259 2.60261 0
-961.596 2.24402 0
-959.939 1.88112 0
-958.287 1.51565 0
-956.641 1.14914 0
-955 0.784861 0
-953.363 0.420692 0
-951.732 0.0591041 0
-950.108 -0.29864 0
-948.486 -0.654033 0
-946.869 -1.00322 0
-945.257 -1.34849 0
-943.648 -1.68633 0
-942.044 -2.02082 0
-940.444 -2.34396 0
-938.847 -2.66168 0
-937.253 -2.96978 0
-935.663 -3.27099 0
-934.076 -3.56074 0
-932.49 -3.84245 0
-930.908 -4.11381 0
-929.328 -4.374 0
-927.752 -4.62371 0
-926.175 -4.8622 0
-924.601 -5.09065 0
-923.029 -5.30757 0
-921.458 -5.51358 0
-919.886 -5.70714 0
-918.317 -5.89016 0
-916.751 -6.0606 0
-915.183 -6.22012 0
-913.616 -6.36815 0
-912.05 -6.50482 0
-910.483 -6.6306 0
-908.918 -6.74362 0
-907.352 -6.8462 0
-905.787 -6.93785 0
-904.22 -7.01897 0
-902.652 -7.08619 0
-901.086 -7.14429 0
-899.517 -7.1924 0
-897.949 -7.23211 0
-896.379 -7.26266 0
-894.807 -7.28078 0
-893.236 -7.29135 0
-891.664 -7.29115 0
-890.09 -7.28474 0
-888.514 -7.26743 0
-886.938 -7.24311 0
-885.361 -7.21094 0
-883.782 -7.17318 0
-882.202 -7.12852 0
-880.62 -7.07581 0
-879.035 -7.01641 0
-877.45 -6.95171 0
-875.863 -6.88098 0
-874.275 -6.8025 0
-872.687 -6.71951 0
-871.095 -6.63394 0
-869.502 -6.54436 0
-867.908 -6.45041 0
-866.31 -6.35164 0
-864.714 -6.24969 0
-863.115 -6.14549 0
-861.514 -6.04051 0
-859.912 -5.93003 0
-858.309 -5.81893 0
-856.702 -5.70638 0
-855.094 -5.59169 0
-853.487 -5.47741 0
-851.877 -5.35932 0
-850.264 -5.24045 0
-848.652 -5.12327 0
-847.038 -5.00337 0
-845.424 -4.887 0
-843.807 -4.76967 0
-842.188 -4.65181 0
-840.57 -4.53539 0
-838.95 -4.4199 0
-837.33 -4.30443 0
-835.708 -4.19276 0
-834.085 -4.08085 0
-832.461 -3.97269 0
-830.835 -3.86674 0
-829.207 -3.76092 0
-827.579 -3.65766 0
-825.953 -3.55546 0
-824.323 -3.45309 0
-822.694 -3.35824 0
-821.063 -3.26568 0
-819.431 -3.17277 0
-817.8 -3.08755 0
-816.168 -3.00181 0
-814.534 -2.92007 0
-812.9 -2.84296 0
-811.268 -2.76648 0
-809.635 -2.69098 0
-808.003 -2.62239 0
-806.366 -2.55939 0
-804.73 -2.49442 0
-803.095 -2.43717 0
-801.459 -2.38155 0
-799.825 -2.33067 0
-798.187 -2.28118 0
-796.553 -2.23653 0
-794.919 -2.19355 0
-793.281 -2.15271 0
-791.647 -2.11803 0
-790.013 -2.08365 0
-788.376 -2.0551 0
-786.74 -2.02642 0
-785.103 -2.0043 0
-783.469 -1.98439 0
-781.836 -1.96585 0
-780.202 -1.95324 0
-778.568 -1.93993 0
-776.933 -1.93395 0
-775.299 -1.9286 0
-773.665 -1.92286 0
-772.032 -1.92176 0
-770.397 -1.92203 0
-768.766 -1.92691 0
-767.135 -1.93386 0
-765.503 -1.9441 0
-763.871 -1.95411 0
-762.24 -1.96587 0
-760.61 -1.98292 0
-758.978 -1.99755 0
-757.349 -2.01845 0
-755.719 -2.03561 0
-754.09 -2.05774 0
-752.462 -2.08252 0
-750.834 -2.10618 0
-749.206 -2.13353 0
-747.578 -2.16034 0
-745.953 -2.18798 0
-744.327 -2.21944 0
-742.703 -2.24885 0
-741.077 -2.28126 0
-739.453 -2.31284 0
-737.829 -2.3451 0
-736.204 -2.37942 0
-734.583 -2.41501 0
-732.958 -2.44977 0
-731.336 -2.48365 0
-729.713 -2.52029 0
-728.09 -2.55442 0
-726.468 -2.59072 0
-724.848 -2.62668 0
-723.227 -2.66069 0
-721.608 -2.6972 0
-719.989 -2.73374 0
-718.37 -2.76796 0
-716.752 -2.80304 0
-715.131 -2.83905 0
-713.513 -2.87449 0
-711.893 -2.90762 0
-710.275 -2.94182 0
-708.657 -2.97483 0
-707.042 -3.00745 0
-705.425 -3.03964 0
-703.807 -3.07404 0
-702.192 -3.1055 0
-700.575 -3.13727 0
-698.958 -3.1669 0
-697.341 -3.19659 0
-695.722 -3.22224 0
-694.108 -3.25126 0
-692.495 -3.2775 0
-690.879 -3.3024 0
-689.263 -3.33006 0
-687.648 -3.35262 0
-686.033 -3.3766 0
-684.419 -3.40151 0
-682.805 -3.42116 0
-681.189 -3.44313 0
-679.577 -3.46389 0
-677.962 -3.48038 0
-676.348 -3.49857 0
-674.736 -3.51652 0
-673.123 -3.53074 0
-671.509 -3.54593 0
-669.895 -3.55801 0
-668.28 -3.56721 0
-666.666 -3.58091 0
-665.053 -3.5919 0
-663.436 -3.60258 0
-661.823 -3.6098 0
-660.21 -3.61979 0
-658.594 -3.6258 0
-656.977 -3.63677 0
-655.364 -3.64164 0
-653.749 -3.64594 0
-652.136 -3.64848 0
-650.521 -3.648 0
-648.909 -3.64967 0
-647.296 -3.65242 0
-645.68 -3.65269 0
-644.067 -3.65153 0
-642.45 -3.64774 0
-640.833 -3.6466 0
-639.217 -3.64276 0
-637.604 -3.63967 0
-635.989 -3.63712 0
-634.375 -3.63078 0
-632.759 -3.62541 0
-631.143 -3.61875 0
-629.528 -3.61451 0
-627.912 -3.6081 0
-626.296 -3.60134 0
-624.681 -3.59176 0
-623.064 -3.58504 0
-621.446 -3.57561 0
-619.83 -3.5647 0
-618.217 -3.55408 0
-616.599 -3.54272 0
-614.982 -3.52838 0
-613.363 -3.51794 0
-611.747 -3.50679 0
-610.129 -3.49994 0
-608.512 -3.48679 0
-606.894 -3.47339 0
-605.277 -3.4587 0
-603.66 -3.44499 0
-602.04 -3.43284 0
-600.421 -3.42386 0
-598.803 -3.40967 0
-597.186 -3.39528 0
-595.569 -3.385 0
-593.952 -3.37217 0
-592.331 -3.3611 0
-590.712 -3.34878 0
-589.093 -3.33746 0
-587.475 -3.32312 0
-585.854 -3.31164 0
-584.236 -3.29918 0
-582.614 -3.28782 0
-580.996 -3.27381 0
-579.377 -3.26223 0
-577.759 -3.25054 0
-576.138 -3.23701 0
-574.517 -3.22611 0
-572.898 -3.21667 0
-571.278 -3.20317 0
-569.655 -3.19218 0
-568.039 -3.17884 0
-566.417 -3.17145 0
-564.799 -3.15879 0
-563.176 -3.15115 0
-561.557 -3.14109 0
-559.937 -3.13379 0
-558.314 -3.12331 0
-556.693 -3.11144 0
-555.072 -3.10601 0
-553.452 -3.09689 0
-551.834 -3.08732 0
-550.212 -3.07888 0
-548.592 -3.07299 0
-546.967 -3.0651 0
-545.347 -3.05891 0
-543.727 -3.05293 0
-542.106 -3.0465 0
-540.487 -3.04326 0
-538.865 -3.03625 0
-537.243 -3.03034 0
-535.625 -3.02559 0
-534.005 -3.02191 0
-532.385 -3.01704 0
-530.766 -3.0164 0
-529.145 -3.0109 0
-527.525 -3.0087 0
-525.907 -3.00682 0
-524.286 -2.99995 0
-522.666 -2.99543 0
-521.047 -2.99253 0
-519.425 -2.99229 0
-517.805 -2.99072 0
-516.184 -2.99125 0
-514.564 -2.99016 0
-512.942 -2.98559 0
-511.321 -2.9867 0
-509.703 -2.98764 0
-508.086 -2.98705 0
-506.466 -2.98639 0
-504.844 -2.98967 0
-503.224 -2.99508 0
-501.604 -2.99718 0
-499.986 -2.99522 0
-498.364 -2.99387 0
-496.74 -2.9949 0
-495.121 -2.99349 0
-493.501 -2.99718 0
-491.883 -2.99917 0
-490.262 -3.00436 0
-488.641 -3.00706 0
-487.025 -3.01072 0
-485.403 -3.01359 0
-483.786 -3.01458 0
-482.166 -3.01506 0
-480.547 -3.01773 0
-478.926 -3.02357 0
-477.307 -3.02841 0
-475.69 -3.03013 0
-474.071 -3.03278 0
-472.45 -3.04073 0
-470.829 -3.04355 0
-469.214 -3.04386 0
-467.595 -3.04888 0
-465.972 -3.05541 0
-464.355 -3.05862 0
-462.733 -3.06205 0
-461.118 -3.06656 0
-459.5 -3.0719 0
-457.882 -3.07727 0
-456.262 -3.08337 0
-454.639 -3.08788 0
-453.02 -3.08966 0
-451.401 -3.09324 0
-449.785 -3.09345 0
-448.168 -3.09924 0
-446.553 -3.1102 0
-444.928 -3.11237 0
-443.309 -3.11697 0
-441.691 -3.12002 0
-440.074 -3.12559 0
-438.454 -3.13161 0
-436.835 -3.13466 0
-435.216 -3.13958 0
-433.595 -3.14196 0
-431.975 -3.14477 0
-430.355 -3.15139 0
-428.74 -3.15599 0
-427.12 -3.15404 0
-425.505 -3.15651 0
-423.886 -3.16114 0
-422.267 -3.16437 0
-420.65 -3.16775 0
-419.03 -3.17365 0
-417.415 -3.17522 0
-415.795 -3.17809 0
-414.18 -3.17864 0
-412.559 -3.18233 0
-410.937 -3.18205 0
-409.317 -3.18411 0
-407.701 -3.18786 0
-406.083 -3.19359 0
-404.465 -3.19846 0
-402.85 -3.2002 0
-401.234 -3.20337 0
-399.616 -3.20763 0
-397.999 -3.20527 0
-396.382 -3.20718 0
-394.762 -3.20565 0
-393.143 -3.20888 0
-391.523 -3.21375 0
-389.903 -3.2186 0
-388.288 -3.21869 0
-386.667 -3.21843 0
-385.047 -3.21578 0
-383.431 -3.21684 0
-381.816 -3.21743 0
-380.202 -3.21963 0
-378.582 -3.22496 0
-376.963 -3.225 0
-375.345 -3.2285 0
-373.727 -3.22796 0
-372.11 -3.22763 0
-370.492 -3.2242 0
-368.874 -3.22499 0
-367.258 -3.22426 0
-365.636 -3.22741 0
-364.018 -3.22845 0
-362.401 -3.22713 0
-360.785 -3.23044 0
-359.163 -3.22757 0
-357.544 -3.22736 0
-355.926 -3.22642 0
-354.311 -3.22566 0
-352.693 -3.2275 0
-351.073 -3.23047 0
-349.456 -3.22614 0
-347.838 -3.22743 0
-346.221 -3.22567 0
-344.605 -3.22673 0
-342.989 -3.22693 0
-341.369 -3.22622 0
-339.749 -3.22292 0
-338.131 -3.22116 0
-336.512 -3.22343 0
-334.891 -3.22237 0
-333.274 -3.228 0
-331.656 -3.22548 0
-330.037 -3.22025 0
-328.421 -3.21744 0
-326.802 -3.22085 0
-325.182 -3.22108 0
-323.564 -3.22104 0
-321.942 -3.21801 0
-320.323 -3.21988 0
-318.706 -3.21607 0
-317.086 -3.21378 0
-315.47 -3.21303 0
-313.853 -3.209 0
-312.237 -3.20839 0
-310.619 -3.2103 0
-308.998 -3.20856 0
-307.383 -3.21081 0
-305.768 -3.20895 0
-304.151 -3.20619 0
-302.533 -3.20861 0
-300.912 -3.20623 0
-299.296 -3.20572 0
-297.68 -3.2016 0
-296.061 -3.19727 0
-294.444 -3.20356 0
-292.825 -3.20231 0
-291.206 -3.19986 0
-289.592 -3.20045 0
-287.97 -3.19685 0
-286.351 -3.19628 0
-284.731 -3.19613 0
-283.113 -3.19894 0
-281.495 -3.19412 0
-279.877 -3.19678 0
-278.261 -3.19761 0
-276.642 -3.19495 0
-275.025 -3.19248 0
-273.409 -3.1909 0
-271.791 -3.18791 0
-270.169 -3.19504 0
-268.554 -3.18774 0
-266.936 -3.18285 0
-265.315 -3.1868 0
-263.697 -3.18325 0
-262.081 -3.18074 0
-260.457 -3.17958 0
-258.839 -3.17768 0
-257.222 -3.17828 0
-255.603 -3.17944 0
-253.985 -3.1781 0
-252.369 -3.17609 0
-250.748 -3.17665 0
-249.13 -3.17504 0
-247.51 -3.17705 0
-245.89 -3.17603 0
-244.273 -3.17612 0
-242.654 -3.17698 0
-241.04 -3.17598 0
-239.419 -3.18006 0
-237.802 -3.18019 0
-236.183 -3.17942 0
-234.561 -3.17779 0
-232.945 -3.1751 0
-231.325 -3.17742 0
-229.711 -3.17573 0
-228.089 -3.17697 0
-226.473 -3.18187 0
-224.852 -3.17881 0
-223.233 -3.1795 0
-221.617 -3.1736 0
-220 -3.17355 0
-218.38 -3.17553 0
-216.762 -3.17337 0
-215.143 -3.17485 0
-213.526 -3.17438 0
-211.908 -3.17625 0
-210.292 -3.17618 0
-208.674 -3.17777 0
-207.057 -3.17896 0
-205.443 -3.17774 0
-203.821 -3.17993 0
-202.203 -3.18014 0
-200.585 -3.18227 0
-198.967 -3.18186 0
-197.349 -3.18113 0
-195.732 -3.17835 0
-194.114 -3.17543 0
-192.499 -3.18051 0
-190.88 -3.17911 0
-189.262 -3.18581 0
-187.643 -3.18431 0
-186.021 -3.18302 0
-184.405 -3.18312 0
-182.789 -3.18397 0
-181.174 -3.17703 0
-179.552 -3.18105 0
-177.937 -3.18214 0
-176.318 -3.18244 0
-174.697 -3.18577 0
-173.08 -3.18513 0
-171.466 -3.18089 0
-169.847 -3.18395 0
-168.232 -3.18234 0
-166.611 -3.18308 0
-164.995 -3.19017 0
-163.376 -3.1926 0
-161.756 -3.19399 0
-160.141 -3.19552 0
-158.52 -3.19708 0
-156.904 -3.19634 0
-155.286 -3.19134 0
-153.669 -3.19603 0
-152.055 -3.19998 0
-150.436 -3.1994 0
-148.815 -3.20239 0
-147.199 -3.19652 0
-145.577 -3.18974 0
-143.961 -3.19269 0
-142.34 -3.18989 0
-140.73 -3.1948 0
-139.111 -3.19771 0
-137.497 -3.1965 0
-135.876 -3.195 0
-134.262 -3.19855 0
-132.639 -3.19781 0
-131.022 -3.19865 0
-129.405 -3.19731 0
-127.789 -3.19148 0
-126.173 -3.19271 0
-124.553 -3.1979 0
-122.935 -3.1955 0
-121.318 -3.19652 0
-119.697 -3.20026 0
-118.08 -3.20027 0
-116.463 -3.19587 0
-114.846 -3.1941 0
-113.229 -3.19527 0
-111.611 -3.19845 0
-109.997 -3.19897 0
-108.376 -3.20456 0
-106.761 -3.20107 0
-105.14 -3.19805 0
-103.525 -3.19888 0
-101.906 -3.19964 0
-100.29 -3.20351 0
-98.6718 -3.20178 0
-97.0483 -3.20261 0
-95.4297 -3.20039 0
-93.8127 -3.19703 0
-92.1981 -3.20159 0
-90.5829 -3.20365 0
-88.966 -3.20486 0
-87.3516 -3.2025 0
-85.7324 -3.20201 0
-84.1167 -3.20296 0
-82.4971 -3.20166 0
-80.8797 -3.20007 0
-79.2624 -3.19783 0
-77.6448 -3.19895 0
-76.0314 -3.20083 0
-74.4143 -3.20307 0
-72.7943 -3.20173 0
-71.1739 -3.20451 0
-69.5557 -3.20317 0
-67.9383 -3.20598 0
-66.3224 -3.20172 0
-64.7021 -3.19772 0
-63.0862 -3.19854 0
-61.471 -3.20001 0
-59.8517 -3.19794 0
-58.2324 -3.20222 0
-56.615 -3.19679 0
-54.995 -3.1994 0
-53.3813 -3.19979 0
-51.7611 -3.19957 0
-50.1423 -3.20197 0
-48.5252 -3.2028 0
-46.905 -3.204 0
-45.2872 -3.20253 0
-43.6689 -3.20259 0
-42.0513 -3.20512 0
-40.437 -3.2075 0
-38.818 -3.20615 0
-37.1997 -3.20739 0
-35.5828 -3.20496 0
-33.9678 -3.20413 0
-32.351 -3.20329 0
-30.7321 -3.20094 0
-29.1126 -3.19935 0
-27.4951 -3.20206 0
-25.8772 -3.20345 0
-24.2607 -3.20497 0
-22.6411 -3.20555 0
-21.0263 -3.20416 0
-19.407 -3.20664 0
-17.7918 -3.20481 0
-16.1741 -3.20267 0
-14.5555 -3.20637 0
-12.9396 -3.20473 0
-11.3208 -3.2055 0
-9.70469 -3.20746 0
-8.08746 -3.2031 0
-6.47079 -3.20209 0
-4.85401 -3.2053 0
-3.23622 -3.20538 0
-1.61947 -3.20427 0
0 -3.20046 0
-1092.65 103.442 0
-1092.55 93.0597 0
-1092.61 83.0468 0
-1092.63 73.271 0
-1092.57 63.7609 0
-1092.43 54.562 0
-1092.2 45.7447 0
-1091.9 37.3784 0
-1091.53 29.5153 0
-1091.11 22.1927 0
-1090.62 15.4308 0
-1090.09 9.24572 0
-1089.53 3.62293 0
-1089.02 -1.5115 0
-1088.56 -6.24253 0
-1088.16 -10.6188 0
-1087.74 -14.6592 0
-1087.27 -18.3503 0
-1086.75 -21.6619 0
-1086.21 -24.5836 0
-1085.64 -27.1146 0
-1085.07 -29.2626 0
-1084.47 -31.0412 0
-1083.87 -32.4713 0
-1083.25 -33.5764 0
-1082.62 -34.3859 0
-1081.96 -34.9239 0
-1081.28 -35.2165 0
-1080.57 -35.2887 0
-1079.82 -35.1632 0
-1079.04 -34.8582 0
-1078.23 -34.3941 0
-1077.37 -33.7867 0
-1076.47 -33.0511 0
-1075.53 -32.2046 0
-1074.55 -31.2585 0
-1073.54 -30.2275 0
-1072.48 -29.1226 0
-1071.38 -27.9537 0
-1070.25 -26.733 0
-1069.07 -25.4695 0
-1067.86 -24.1702 0
-1066.62 -22.8459 0
-1065.34 -21.5033 0
-1064.03 -20.1494 0
-1062.69 -18.7913 0
-1061.32 -17.434 0
-1059.92 -16.0842 0
-1058.49 -14.7449 0
-1057.03 -13.4226 0
-1055.55 -12.1192 0
-1054.05 -10.8397 0
-1052.52 -9.58655 0
-1050.98 -8.36511 0
-1049.41 -7.17585 0
-1047.82 -6.02063 0
-1046.22 -4.90255 0
-1044.6 -3.82374 0
-1042.96 -2.78422 0
-1041.31 -1.78729 0
-1039.64 -0.833162 0
-1037.97 0.0781882 0
-1036.28 0.944405 0
-1034.58 1.76803 0
-1032.87 2.54524 0
-1031.15 3.27787 0
-1029.43 3.96488 0
-1027.7 4.60634 0
-1025.96 5.20345 0
-1024.21 5.7557 0
-1022.47 6.26381 0
-1020.71 6.72837 0
-1018.96 7.15045 0
-1017.2 7.52827 0
-1015.44 7.86561 0
-1013.67 8.16045 0
-1011.91 8.41693 0
-1010.15 8.63348 0
-1008.38 8.81223 0
-1006.62 8.95499 0
-1004.86 9.0618 0
-1003.1 9.13403 0
-1001.34 9.17186 0
-999.58 9.1795 0
-997.825 9.15478 0
-996.074 9.10116 0
-994.325 9.01967 0
-992.581 8.91072 0
-990.839 8.77616 0
-989.102 8.61786 0
-987.369 8.43769 0
-985.64 8.23521 0
-983.917 8.01233 0
-982.198 7.77071 0
-980.483 7.51204 0
-978.772 7.23608 0
-977.067 6.94674 0
-975.367 6.64393 0
-973.672 6.32939 0
-971.982 6.00299 0
-970.297 5.6664 0
-968.615 5.32251 0
-966.939 4.97087 0
-965.27 4.61381 0
-963.605 4.2512 0
-961.945 3.88652 0
-960.29 3.5175 0