<?xml version="1.0"?>
<VTKFile type="StructuredGrid"  version="0.1" byte_order="LittleEndian" compressor="vtkZLibDataCompressor">
  <StructuredGrid WholeExtent="0 700 0 30 0 0">
    <Piece Extent="0 700 0 30 0 0">
      <PointData Vectors="Velocity">
        <DataArray type="Float32" Name="Velocity" NumberOfComponents="3" format="ascii">
-1066.2 97.7885 0
-1066.63 87.9739 0
-1067.1 78.2901 0
-1067.6 68.8235 0
-1068.12 59.6148 0
-1068.68 50.7335 0
-1069.29 42.2657 0
-1069.92 34.2644 0
-1070.56 26.7614 0
-1071.19 19.7818 0
-1071.79 13.3393 0
-1072.35 7.46513 0
-1072.86 2.1718 0
-1073.23 -2.58569 0
-1073.48 -6.96179 0
-1073.71 -11.0706 0
-1073.94 -14.8773 0
-1074.17 -18.3368 0
-1074.41 -21.407 0
-1074.63 -24.0826 0
-1074.82 -26.3741 0
-1074.96 -28.2983 0
-1075.06 -29.8807 0
-1075.09 -31.1508 0
-1075.06 -32.1185 0
-1074.96 -32.8136 0
-1074.79 -33.261 0
-1074.53 -33.4905 0
-1074.2 -33.5215 0
-1073.8 -33.3751 0
-1073.32 -33.0594 0
-1072.76 -32.6024 0
-1072.14 -32.0178 0
-1071.44 -31.3168 0
-1070.68 -30.5168 0
-1069.85 -29.6322 0
-1068.96 -28.6644 0
-1068.01 -27.6307 0
-1066.99 -26.5465 0
-1065.92 -25.412 0
-1064.8 -24.2438 0
-1063.62 -23.0476 0
-1062.39 -21.8315 0
-1061.12 -20.5983 0
-1059.81 -19.3639 0
-1058.45 -18.1272 0
-1057.05 -16.8935 0
-1055.61 -15.6701 0
-1054.14 -14.4571 0
-1052.64 -13.2637 0
-1051.1 -12.0922 0
-1049.53 -10.9474 0
-1047.94 -9.8297 0
-1046.32 -8.74404 0
-1044.69 -7.68916 0
-1043.02 -6.67186 0
-1041.34 -5.69004 0
-1039.64 -4.74628 0
-1037.93 -3.83865 0
-1036.2 -2.9753 0
-1034.45 -2.15267 0
-1032.69 -1.37061 0
-1030.92 -0.632185 0
-1029.14 0.0652659 0
-1027.36 0.717642 0
-1025.56 1.32682 0
-1023.76 1.89101 0
-1021.95 2.41454 0
-1020.14 2.89567 0
-1018.33 3.33513 0
-1016.51 3.73274 0
-1014.69 4.09004 0
-1012.87 4.40769 0
-1011.05 4.68436 0
-1009.23 4.92638 0
-1007.41 5.12853 0
-1005.59 5.29664 0
-1003.78 5.42796 0
-1001.96 5.52597 0
-1000.16 5.58993 0
-998.351 5.62397 0
-996.552 5.62782 0
-994.758 5.60075 0
-992.969 5.5446 0
-991.184 5.46352 0
-989.406 5.35849 0
-987.634 5.22699 0
-985.869 5.07529 0
-984.111 4.90002 0
-982.359 4.70347 0
-980.616 4.48832 0
-978.879 4.25654 0
-977.151 4.00893 0
-975.427 3.74531 0
-973.71 3.47113 0
-972.004 3.18202 0
-970.304 2.88378 0
-968.61 2.57487 0
-966.923 2.25484 0
-965.245 1.93098 0
-963.573 1.60109 0
-961.91 1.26569 0
-960.252 0.925537 0
-958.602 0.583605 0
-956.957 0.2399 0
-955.321 -0.105637 0
-953.689 -0.448887 0
-952.063 -0.793381 0
-950.445 -1.13563 0
-948.833 -1.47451 0
-947.224 -1.80991 0
-945.622 -2.13844 0
-944.023 -2.46476 0
-942.431 -2.78386 0
-940.843 -3.09616 0
-939.26 -3.40435 0
-937.678 -3.70298 0
-936.104 -3.99374 0
-934.531 -4.2747 0
-932.963 -4.54654 0
-931.396 -4.80858 0
-929.832 -5.06123 0
-928.272 -5.30549 0
-926.712 -5.53923 0
-925.156 -5.76172 0
-923.602 -5.9732 0
-922.049 -6.1751 0
-920.498 -6.36366 0
-918.946 -6.54268 0
-917.395 -6.71239 0
-915.845 -6.86756 0
-914.298 -7.01195 0
-912.748 -7.14655 0
-911.201 -7.27003 0
-909.656 -7.38167 0
-908.109 -7.48149 0
-906.56 -7.57182 0
-905.011 -7.65138 0
-903.463 -7.72174 0
-901.912 -7.78229 0
-900.361 -7.83133 0
-898.812 -7.87265 0
-897.26 -7.90289 0
-895.706 -7.92237 0
-894.151 -7.934 0
-892.595 -7.93854 0
-891.037 -7.93174 0
-889.478 -7.91858 0
-887.917 -7.8982 0
-886.353 -7.87101 0
-884.79 -7.83795 0
-883.224 -7.79529 0
-881.658 -7.74713 0
-880.088 -7.69452 0
-878.517 -7.63363 0
-876.948 -7.56825 0
-875.372 -7.49699 0
-873.795 -7.42148 0
-872.215 -7.34204 0
-870.632 -7.26202 0
-869.049 -7.17564 0
-867.464 -7.08498 0
-865.877 -6.99055 0
-864.288 -6.894 0
-862.699 -6.79508 0
-861.107 -6.69368 0
-859.511 -6.59022 0
-857.914 -6.48576 0
-856.318 -6.38208 0
-854.716 -6.27725 0
-853.118 -6.16934 0
-851.516 -6.06117 0
-849.91 -5.95528 0
-848.305 -5.85049 0
-846.699 -5.74283 0
-845.09 -5.63622 0
-843.48 -5.53142 0
-841.867 -5.42524 0
-840.253 -5.32149 0
-838.641 -5.21593 0
-837.027 -5.11708 0
-835.409 -5.018 0
-833.792 -4.9201 0
-832.174 -4.82379 0
-830.553 -4.73265 0
-828.935 -4.64261 0
-827.314 -4.55382 0
-825.691 -4.46925 0
-824.069 -4.38593 0
-822.445 -4.30543 0
-820.822 -4.22701 0
-819.197 -4.15131 0
-817.571 -4.08143 0
-815.944 -4.0142 0
-814.318 -3.95065 0
-812.691 -3.88748 0
-811.067 -3.82963 0
-809.437 -3.7712 0
-807.812 -3.72012 0
-806.183 -3.66795 0
-804.556 -3.62473 0
-802.928 -3.57687 0
-801.3 -3.53632 0
-799.674 -3.50171 0
-798.046 -3.46809 0
-796.416 -3.4393 0
-794.787 -3.41263 0
-793.159 -3.3872 0
-791.532 -3.3648 0
-789.906 -3.34544 0
-788.279 -3.32817 0
-786.652 -3.31485 0
-785.026 -3.30612 0
-783.398 -3.30096 0
-781.776 -3.29482 0
-780.148 -3.29133 0
-778.525 -3.29521 0
-776.901 -3.29942 0
-775.275 -3.30437 0
-773.65 -3.30982 0
-772.026 -3.32302 0
-770.402 -3.33482 0
-768.78 -3.34772 0
-767.158 -3.36441 0
-765.537 -3.38138 0
-763.914 -3.40102 0
-762.296 -3.42236 0
-760.678 -3.44497 0
-759.059 -3.47099 0
-757.439 -3.49591 0
-755.818 -3.52437 0
-754.2 -3.5526 0
-752.584 -3.58005 0
-750.967 -3.61011 0
-749.349 -3.64269 0
-747.733 -3.67407 0
-746.121 -3.70791 0
-744.505 -3.74132 0
-742.89 -3.77589 0
-741.277 -3.81302 0
-739.663 -3.84873 0
-738.049 -3.88513 0
-736.437 -3.92307 0
-734.824 -3.95867 0
-733.212 -3.99547 0
-731.603 -4.03284 0
-729.994 -4.06842 0
-728.385 -4.1062 0
-726.777 -4.13997 0
-725.166 -4.17967 0
-723.559 -4.21533 0
-721.953 -4.2502 0
-720.343 -4.28689 0
-718.737 -4.3196 0
-717.128 -4.35231 0
-715.523 -4.38591 0
-713.917 -4.42064 0
-712.309 -4.45167 0
-710.699 -4.48831 0
-709.093 -4.51874 0
-707.488 -4.54914 0
-705.882 -4.57927 0
-704.279 -4.60575 0
-702.674 -4.63536 0
-701.069 -4.66275 0
-699.467 -4.68815 0
-697.861 -4.71486 0
-696.257 -4.7405 0
-694.655 -4.76585 0
-693.05 -4.7896 0
-691.445 -4.81377 0
-689.842 -4.83406 0
-688.238 -4.85508 0
-686.633 -4.87194 0
-685.032 -4.89228 0
-683.429 -4.91009 0
-681.824 -4.92902 0
-680.219 -4.94639 0
-678.615 -4.95678 0
-677.009 -4.96925 0
-675.407 -4.98222 0
-673.806 -4.99502 0
-672.202 -5.00808 0
-670.598 -5.01749 0
-668.996 -5.0281 0
-667.393 -5.03547 0
-665.79 -5.04321 0
-664.186 -5.05039 0
-662.582 -5.05596 0
-660.977 -5.05892 0
-659.375 -5.064 0
-657.771 -5.06789 0
-656.167 -5.06748 0
-654.563 -5.06918 0
-652.96 -5.07155 0
-651.355 -5.06931 0
-649.748 -5.06812 0
-648.144 -5.06687 0
-646.54 -5.06323 0
-644.937 -5.05985 0
-643.331 -5.05916 0
-641.726 -5.05367 0
-640.123 -5.05142 0
-638.515 -5.04553 0
-636.911 -5.04033 0
-635.303 -5.03326 0
-633.696 -5.02848 0
-632.088 -5.02106 0
-630.484 -5.01359 0
-628.88 -5.00395 0
-627.274 -4.99688 0
-625.667 -4.98976 0
-624.061 -4.98216 0
-622.456 -4.97133 0
-620.85 -4.95775 0
-619.24 -4.95083 0
-617.634 -4.93976 0
-616.028 -4.92726 0
-614.419 -4.92065 0
-612.812 -4.91253 0
-611.202 -4.89918 0
-609.591 -4.89155 0
-607.983 -4.8792 0
-606.377 -4.87291 0
-604.769 -4.85592 0
-603.159 -4.84474 0
-601.556 -4.84064 0
-599.947 -4.83115 0
-598.337 -4.81878 0
-596.728 -4.80437 0
-595.119 -4.79526 0
-593.507 -4.78311 0
-591.897 -4.77481 0
-590.29 -4.76953 0
-588.68 -4.7581 0
-587.068 -4.74853 0
-585.46 -4.73693 0
-583.851 -4.72751 0
-582.238 -4.71359 0
-580.623 -4.70515 0
-579.016 -4.69601 0
-577.404 -4.68763 0
-575.796 -4.67842 0
-574.183 -4.67181 0
-572.573 -4.66917 0
-570.964 -4.66298 0
-569.353 -4.65053 0
-567.743 -4.6438 0
-566.133 -4.63702 0
-564.521 -4.63297 0
-562.912 -4.62689 0
-561.302 -4.62068 0
-559.691 -4.61652 0
-558.078 -4.61142 0
-556.468 -4.60819 0
-554.856 -4.59943 0
-553.246 -4.59065 0
-551.637 -4.5906 0
-550.027 -4.58452 0
-548.416 -4.58501 0
-546.803 -4.58246 0
-545.188 -4.58456 0
-543.584 -4.57971 0
-541.971 -4.5786 0
-540.36 -4.57262 0
-538.747 -4.56786 0
-537.134 -4.56886 0
-535.528 -4.5747 0
-533.919 -4.56932 0
-532.311 -4.5683 0
-530.702 -4.57187 0
-529.09 -4.56947 0
-527.475 -4.56864 0
-525.865 -4.56694 0
-524.255 -4.56728 0
-522.642 -4.5693 0
-521.031 -4.5712 0
-519.417 -4.57101 0
-517.811 -4.57598 0
-516.204 -4.57378 0
-514.592 -4.57823 0
-512.983 -4.57591 0
-511.368 -4.58213 0
-509.759 -4.58696 0
-508.154 -4.58854 0
-506.545 -4.58519 0
-504.933 -4.59179 0
-503.324 -4.5951 0
-501.712 -4.59889 0
-500.103 -4.60369 0
-498.496 -4.61004 0
-496.885 -4.61329 0
-495.275 -4.62003 0
-493.667 -4.62505 0
-492.057 -4.62437 0
-490.45 -4.62819 0
-488.837 -4.63398 0
-487.23 -4.63921 0
-485.622 -4.64396 0
-484.016 -4.64749 0
-482.406 -4.65159 0
-480.794 -4.65289 0
-479.188 -4.65238 0
-477.577 -4.66326 0
-475.97 -4.66428 0
-474.358 -4.66863 0
-472.753 -4.67706 0
-471.142 -4.67982 0
-469.536 -4.68302 0
-467.927 -4.6903 0
-466.317 -4.6891 0
-464.706 -4.69324 0
-463.1 -4.69792 0
-461.489 -4.70207 0
-459.881 -4.70903 0
-458.269 -4.7111 0
-456.662 -4.71225 0
-455.053 -4.72231 0
-453.448 -4.72636 0
-451.832 -4.72878 0
-450.223 -4.73215 0
-448.618 -4.74128 0
-447.008 -4.74152 0
-445.403 -4.74764 0
-443.793 -4.74929 0
-442.182 -4.74983 0
-440.578 -4.75182 0
-438.973 -4.75208 0
-437.36 -4.7589 0
-435.755 -4.76749 0
-434.143 -4.76806 0
-432.535 -4.77179 0
-430.927 -4.7728 0
-429.321 -4.77983 0
-427.714 -4.78081 0
-426.105 -4.78347 0
-424.499 -4.78641 0
-422.896 -4.78934 0
-421.284 -4.79492 0
-419.678 -4.79809 0
-418.066 -4.79462 0
-416.457 -4.79783 0
-414.848 -4.79691 0
-413.238 -4.80061 0
-411.63 -4.80322 0
-410.022 -4.80409 0
-408.418 -4.81008 0
-406.814 -4.80988 0
-405.205 -4.80922 0
-403.594 -4.81537 0
-401.989 -4.81617 0
-400.378 -4.81599 0
-398.77 -4.81787 0
-397.165 -4.81618 0
-395.555 -4.82442 0
-393.949 -4.81656 0
-392.339 -4.81654 0
-390.733 -4.81699 0
-389.125 -4.8151 0
-387.517 -4.81786 0
-385.906 -4.81958 0
-384.3 -4.81786 0
-382.696 -4.81986 0
-381.089 -4.82037 0
-379.479 -4.81816 0
-377.871 -4.82182 0
-376.266 -4.81677 0
-374.661 -4.81668 0
-373.05 -4.81201 0
-371.441 -4.81796 0
-369.829 -4.81619 0
-368.223 -4.80943 0
-366.613 -4.81454 0
-365.003 -4.81916 0
-363.395 -4.82244 0
-361.783 -4.81776 0
-360.177 -4.81885 0
-358.568 -4.81125 0
-356.961 -4.81689 0
-355.355 -4.81729 0
-353.75 -4.81012 0
-352.14 -4.80723 0
-350.528 -4.81478 0
-348.922 -4.81274 0
-347.317 -4.8138 0
-345.706 -4.81491 0
-344.1 -4.8106 0
-342.493 -4.807 0
-340.887 -4.80754 0
-339.278 -4.80073 0
-337.667 -4.80066 0
-336.057 -4.79989 0
-334.45 -4.8024 0
-332.843 -4.79999 0
-331.239 -4.799 0
-329.627 -4.79535 0
-328.014 -4.79562 0
-326.405 -4.79475 0
-324.794 -4.79515 0
-323.186 -4.79225 0
-321.583 -4.79364 0
-319.977 -4.7919 0
-318.368 -4.79488 0
-316.761 -4.79044 0
-315.154 -4.78847 0
-313.546 -4.787 0
-311.936 -4.78529 0
-310.327 -4.78482 0
-308.715 -4.77721 0
-307.107 -4.77536 0
-305.5 -4.77845 0
-303.889 -4.78256 0
-302.282 -4.78268 0
-300.676 -4.77722 0
-299.065 -4.77657 0
-297.453 -4.77881 0
-295.847 -4.77684 0
-294.24 -4.77452 0
-292.629 -4.7743 0
-291.024 -4.77648 0
-289.415 -4.76558 0
-287.808 -4.76609 0
-286.199 -4.76601 0
-284.591 -4.76243 0
-282.984 -4.76649 0
-281.378 -4.77164 0
-279.767 -4.7691 0
-278.16 -4.76925 0
-276.549 -4.7676 0
-274.948 -4.76893 0
-273.335 -4.76786 0
-271.721 -4.76319 0
-270.113 -4.76534 0
-268.506 -4.76735 0
-266.898 -4.76634 0
-265.29 -4.76067 0
-263.684 -4.76132 0
-262.075 -4.76376 0
-260.469 -4.7566 0
-258.859 -4.7628 0
-257.248 -4.76411 0
-255.643 -4.7555 0
-254.032 -4.75813 0
-252.425 -4.76084 0
-250.818 -4.75706 0
-249.211 -4.75641 0
-247.604 -4.75392 0
-245.994 -4.75555 0
-244.388 -4.75543 0
-242.779 -4.75491 0
-241.171 -4.7581 0
-239.566 -4.75223 0
-237.955 -4.76029 0
-236.347 -4.75745 0
-234.738 -4.75598 0
-233.131 -4.76044 0
-231.52 -4.75961 0
-229.912 -4.75616 0
-228.311 -4.75907 0
-226.697 -4.75553 0
-225.088 -4.75797 0
-223.48 -4.75338 0
-221.87 -4.75691 0
-220.259 -4.75774 0
-218.653 -4.7616 0
-217.046 -4.75215 0
-215.438 -4.74937 0
-213.829 -4.75423 0
-212.22 -4.75517 0
-210.606 -4.7554 0
-209.002 -4.7512 0
-207.397 -4.7533 0
-205.787 -4.75518 0
-204.178 -4.75203 0
-202.568 -4.75386 0
-200.958 -4.75925 0
-199.352 -4.76016 0
-197.746 -4.75156 0
-196.137 -4.76347 0
-194.531 -4.7552 0
-192.917 -4.75313 0
-191.308 -4.75518 0
-189.698 -4.76104 0
-188.102 -4.75599 0
-186.491 -4.7607 0
-184.881 -4.75771 0
-183.28 -4.75673 0
-181.668 -4.75959 0
-180.063 -4.75931 0
-178.448 -4.76396 0
-176.839 -4.76432 0
-175.233 -4.76191 0
-173.626 -4.76176 0
-172.013 -4.76046 0
-170.404 -4.76549 0
-168.802 -4.76733 0
-167.195 -4.76872 0
-165.582 -4.76764 0
-163.971 -4.77199 0
-162.368 -4.76695 0
-160.759 -4.76507 0
-159.156 -4.76632 0
-157.552 -4.76618 0
-155.938 -4.76649 0
-154.325 -4.76583 0
-152.72 -4.76619 0
-151.111 -4.7692 0
-149.502 -4.76754 0
-147.889 -4.76872 0
-146.288 -4.76464 0
-144.678 -4.76295 0
-143.079 -4.76275 0
-141.47 -4.76165 0
-139.862 -4.76859 0
-138.258 -4.77118 0
-136.649 -4.76996 0
-135.04 -4.76749 0
-133.429 -4.77147 0
-131.823 -4.77002 0
-130.218 -4.76981 0
-128.607 -4.7679 0
-126.997 -4.76998 0
-125.387 -4.77564 0
-123.78 -4.77554 0
-122.174 -4.77431 0
-120.571 -4.77015 0
-118.962 -4.76867 0
-117.353 -4.76727 0
-115.744 -4.76953 0
-114.134 -4.76794 0
-112.527 -4.76839 0
-110.918 -4.77157 0
-109.308 -4.76973 0
-107.703 -4.77092 0
-106.097 -4.77294 0
-104.488 -4.77559 0
-102.885 -4.77699 0
-101.276 -4.77435 0
-99.6697 -4.77905 0
-98.0614 -4.77684 0
-96.456 -4.7738 0
-94.8459 -4.77307 0
-93.2386 -4.77175 0
-91.6272 -4.77256 0
-90.0165 -4.77245 0
-88.4147 -4.77223 0
-86.807 -4.77515 0
-85.2012 -4.77108 0
-83.5912 -4.77224 0
-81.9848 -4.77409 0
-80.3789 -4.77238 0
-78.7705 -4.77273 0
-77.1626 -4.77389 0
-75.5555 -4.77282 0
-73.9488 -4.77438 0
-72.3395 -4.77598 0
-70.7333 -4.77604 0
-69.1286 -4.77124 0
-67.5178 -4.77216 0
-65.9101 -4.77189 0
-64.3001 -4.77222 0
-62.6947 -4.77619 0
-61.0868 -4.77344 0
-59.48 -4.77318 0
-57.8713 -4.77486 0
-56.2646 -4.7721 0
-54.6583 -4.77411 0
-53.052 -4.77512 0
-51.4401 -4.77094 0
-49.832 -4.77504 0
-48.2293 -4.77293 0
-46.6212 -4.77163 0
-45.0128 -4.7731 0
-43.4033 -4.77387 0
-41.7955 -4.77583 0
-40.1891 -4.77596 0
-38.584 -4.77038 0
-36.9754 -4.77198 0
-35.3677 -4.773 0
-33.7567 -4.77408 0
-32.1575 -4.7724 0
-30.5468 -4.77806 0
-28.9422 -4.77264 0
-27.3329 -4.77004 0
-25.7221 -4.76799 0
-24.1108 -4.76972 0
-22.5062 -4.76964 0
-20.8974 -4.77088 0
-19.2947 -4.77557 0
-17.6875 -4.76797 0
-16.0769 -4.77459 0
-14.4709 -4.77344 0
-12.8671 -4.77019 0
-11.2576 -4.77391 0
-9.64542 -4.7729 0
-8.03664 -4.7693 0
-6.42998 -4.76694 0
-4.82346 -4.7694 0
-3.20937 -4.7693 0
-1.60718 -4.77035 0
0 -4.77742 0
-1076.01 98.2418 0
-1076.33 88.3764 0
-1076.64 78.6628 0
-1076.93 69.1706 0
-1077.19 59.9296 0
-1077.4 51.0015 0
-1077.58 42.476 0
-1077.72 34.4252 0
-1077.84 26.8828 0
-1077.91 19.8737 0
-1077.94 13.4226 0
-1077.9 7.54512 0
-1077.81 2.25772 0
-1077.73 -2.48359 0
-1077.72 -6.86478 0
-1077.69 -10.9819 0
-1077.61 -14.8019 0
-1077.5 -18.2619 0
-1077.36 -21.3318 0
-1077.18 -24.003 0
-1076.99 -26.2875 0
-1076.78 -28.1954 0
-1076.53 -29.748 0
-1076.26 -30.9772 0
-1075.93 -31.8967 0
-1075.57 -32.5369 0
-1075.15 -32.9284 0
-1074.69 -33.0972 0
-1074.16 -33.065 0
-1073.59 -32.8513 0
-1072.95 -32.4742 0
-1072.26 -31.957 0
-1071.51 -31.3058 0
-1070.71 -30.5428 0
-1069.85 -29.6827 0
-1068.94 -28.7392 0
-1067.97 -27.7166 0
-1066.96 -26.6258 0
-1065.9 -25.487 0
-1064.79 -24.3018 0
-1063.63 -23.0855 0
-1062.43 -21.8438 0
-1061.19 -20.5811 0
-1059.91 -19.3074 0
-1058.59 -18.0296 0
-1057.23 -16.7544 0
-1055.84 -15.4841 0
-1054.41 -14.228 0
-1052.96 -12.9834 0
-1051.47 -11.7599 0
-1049.96 -10.5603 0
-1048.42 -9.38727 0
-1046.86 -8.24761 0
-1045.27 -7.13908 0
-1043.67 -6.06199 0
-1042.04 -5.02546 0
-1040.4 -4.02632 0
-1038.74 -3.0663 0
-1037.06 -2.14575 0
-1035.37 -1.26815 0
-1033.67 -0.432243 0
-1031.95 0.360368 0
-1030.23 1.10884 0
-1028.49 1.81352 0
-1026.74 2.47481 0
-1024.99 3.09005 0
-1023.23 3.66095 0
-1021.46 4.18875 0
-1019.69 4.67336 0
-1017.92 5.11547 0
-1016.14 5.5145 0
-1014.36 5.87381 0
-1012.58 6.19086 0
-1010.8 6.47027 0
-1009.01 6.70942 0
-1007.23 6.91126 0
-1005.45 7.07758 0
-1003.67 7.20672 0
-1001.89 7.30196 0
-1000.11 7.36258 0
-998.34 7.39204 0
-996.569 7.39023 0
-994.803 7.3598 0
-993.04 7.29845 0
-991.282 7.21369 0
-989.528 7.09994 0
-987.779 6.96513 0
-986.036 6.80691 0
-984.298 6.62532 0
-982.566 6.42179 0
-980.839 6.20015 0
-979.12 5.96242 0
-977.406 5.70887 0
-975.696 5.43944 0
-973.993 5.15699 0
-972.295 4.8616 0
-970.604 4.5565 0
-968.921 4.24169 0
-967.243 3.91616 0
-965.57 3.58432 0
-963.904 3.24788 0
-962.243 2.90607 0
-960.589 2.56142 0
-958.94 2.21242 0
-957.299 1.86114 0
-955.661 1.51128 0
-954.029 1.16109 0
-952.404 0.811461 0
-950.783 0.464822 0
-949.164 0.121139 0
-947.553 -0.219315 0
-945.946 -0.55307 0
-944.343 -0.883342 0
-942.744 -1.20723 0
-941.15 -1.52352 0
-939.559 -1.83491 0
-937.971 -2.13788 0
-936.385 -2.43097 0
-934.804 -2.71554 0
-933.226 -2.98973 0
-931.65 -3.25561 0
-930.077 -3.51155 0
-928.506 -3.75606 0
-926.936 -3.99172 0
-925.369 -4.21696 0
-923.805 -4.42995 0
-922.242 -4.6316 0
-920.678 -4.82177 0
-919.116 -5.00217 0
-917.554 -5.17223 0
-915.995 -5.3289 0
-914.435 -5.47395 0
-912.876 -5.60858 0
-911.317 -5.73295 0
-909.759 -5.84486 0
-908.202 -5.94437 0
-906.644 -6.03369 0
-905.084 -6.11376 0
-903.526 -6.18339 0
-901.966 -6.24303 0
-900.406 -6.29125 0
-898.845 -6.33175 0
-897.284 -6.36038 0
-895.722 -6.3805 0
-894.158 -6.38963 0
-892.593 -6.39246 0
-891.025 -6.38461 0
-889.459 -6.37099 0
-887.891 -6.34876 0
-886.322 -6.32031 0
-884.751 -6.28384 0
-883.18 -6.24154 0
-881.606 -6.19229 0
-880.031 -6.13625 0
-878.456 -6.0745 0
-876.876 -6.00861 0
-875.297 -5.93333 0
-873.716 -5.8565 0
-872.134 -5.77671 0
-870.549 -5.69396 0
-868.962 -5.60524 0
-867.373 -5.51401 0
-865.784 -5.41659 0
-864.192 -5.31865 0
-862.6 -5.21896 0
-861.004 -5.11544 0
-859.409 -5.01216 0
-857.812 -4.90559 0
-856.212 -4.80013 0
-854.613 -4.69258 0
-853.011 -4.58332 0
-851.41 -4.47537 0
-849.806 -4.36546 0
-848.201 -4.25981 0
-846.593 -4.15236 0
-844.984 -4.04236 0
-843.375 -3.93623 0
-841.765 -3.82864 0
-840.151 -3.72372 0
-838.539 -3.62021 0
-836.928 -3.5185 0
-835.313 -3.41795 0
-833.697 -3.32016 0
-832.081 -3.22296 0
-830.466 -3.12989 0
-828.847 -3.03854 0
-827.229 -2.94902 0
-825.609 -2.86367 0
-823.987 -2.7802 0
-822.367 -2.6987 0
-820.749 -2.62205 0
-819.126 -2.54455 0
-817.503 -2.47188 0
-815.88 -2.40645 0
-814.256 -2.33975 0
-812.632 -2.27873 0
-811.008 -2.22005 0
-809.386 -2.16222 0
-807.76 -2.11075 0
-806.136 -2.05752 0
-804.512 -2.01389 0
-802.887 -1.96737 0
-801.262 -1.92774 0
-799.637 -1.89105 0
-798.013 -1.85816 0
-796.388 -1.82925 0
-794.762 -1.80133 0
-793.137 -1.77728 0
-791.514 -1.75454 0
-789.888 -1.7373 0
-788.264 -1.71873 0
-786.64 -1.70702 0
-785.018 -1.69718 0
-783.394 -1.69181 0
-781.771 -1.68661 0
-780.149 -1.685 0
-778.526 -1.68873 0
-776.903 -1.69109 0
-775.28 -1.69659 0
-773.657 -1.70559 0
-772.038 -1.7172 0
-770.416 -1.72893 0
-768.796 -1.74173 0
-767.175 -1.7611 0
-765.555 -1.77755 0
-763.936 -1.79808 0
-762.32 -1.82061 0
-760.701 -1.84418 0
-759.082 -1.86795 0
-757.464 -1.89403 0
-755.848 -1.92225 0
-754.23 -1.95149 0
-752.613 -1.98056 0
-750.997 -2.01131 0
-749.382 -2.04353 0
-747.767 -2.07648 0
-746.152 -2.11082 0
-744.537 -2.14409 0
-742.925 -2.17981 0
-741.311 -2.21509 0
-739.699 -2.25199 0
-738.085 -2.28781 0
-736.472 -2.32659 0
-734.859 -2.3645 0
-733.249 -2.40168 0
-731.64 -2.43908 0
-730.028 -2.4751 0
-728.418 -2.51265 0
-726.81 -2.54765 0
-725.202 -2.58554 0
-723.592 -2.62319 0
-721.984 -2.65912 0
-720.377 -2.69417 0
-718.769 -2.72774 0
-717.161 -2.75955 0
-715.555 -2.79584 0
-713.947 -2.82863 0
-712.338 -2.86301 0
-710.733 -2.89488 0
-709.126 -2.92742 0
-707.52 -2.95867 0
-705.912 -2.98948 0
-704.307 -3.01972 0
-702.702 -3.04656 0
-701.098 -3.07406 0
-699.493 -3.09963 0
-697.887 -3.12519 0
-696.281 -3.1526 0
-694.677 -3.17683 0
-693.072 -3.20007 0
-691.467 -3.22436 0
-689.861 -3.24629 0
-688.256 -3.26615 0
-686.653 -3.28538 0
-685.048 -3.30427 0
-683.445 -3.32137 0
-681.839 -3.34123 0
-680.234 -3.35511 0
-678.628 -3.3697 0
-677.025 -3.38075 0
-675.42 -3.39304 0
-673.815 -3.40854 0
-672.213 -3.42142 0
-670.61 -3.43086 0
-669.003 -3.44192 0
-667.4 -3.44628 0
-665.797 -3.45305 0
-664.191 -3.4607 0
-662.588 -3.46401 0
-660.983 -3.47211 0
-659.379 -3.47627 0
-657.772 -3.47968 0
-656.168 -3.47962 0
-654.562 -3.4801 0
-652.959 -3.48319 0
-651.353 -3.48107 0
-649.749 -3.47882 0
-648.143 -3.48007 0
-646.537 -3.47568 0
-644.93 -3.47235 0
-643.326 -3.46938 0
-641.719 -3.46703 0
-640.114 -3.46207 0
-638.509 -3.45491 0
-636.901 -3.45024 0
-635.295 -3.4449 0
-633.692 -3.43912 0
-632.083 -3.43218 0
-630.478 -3.42477 0
-628.871 -3.41615 0
-627.267 -3.4066 0
-625.659 -3.39876 0
-624.054 -3.3928 0
-622.444 -3.38163 0
-620.838 -3.3689 0
-619.232 -3.35831 0
-617.625 -3.34847 0
-616.016 -3.33634 0
-614.408 -3.32898 0
-612.799 -3.31771 0
-611.192 -3.30954 0
-609.584 -3.29933 0
-607.974 -3.28825 0
-606.365 -3.27772 0
-604.758 -3.26596 0
-603.15 -3.25566 0
-601.545 -3.2465 0
-599.934 -3.23671 0
-598.323 -3.22622 0
-596.714 -3.21433 0
-595.105 -3.20285 0
-593.494 -3.19045 0
-591.887 -3.17912 0
-590.278 -3.17491 0
-588.672 -3.16356 0
-587.062 -3.15372 0
-585.451 -3.14301 0
-583.838 -3.1309 0
-582.226 -3.12024 0
-580.616 -3.11201 0
-579.003 -3.10212 0
-577.397 -3.09401 0
-575.787 -3.08727 0
-574.177 -3.07974 0
-572.568 -3.07382 0
-570.956 -3.06604 0
-569.346 -3.05851 0
-567.737 -3.04847 0
-566.126 -3.04281 0
-564.514 -3.03668 0
-562.903 -3.03288 0
-561.293 -3.02537 0
-559.684 -3.02153 0
-558.074 -3.01565 0
-556.462 -3.01094 0
-554.853 -3.00517 0
-553.243 -3.0004 0
-551.631 -2.99619 0
-550.022 -2.99372 0
-548.412 -2.98905 0
-546.8 -2.98845 0
-545.191 -2.99043 0
-543.578 -2.98586 0
-541.969 -2.98388 0
-540.359 -2.97776 0
-538.747 -2.974 0
-537.139 -2.97771 0
-535.528 -2.97823 0
-533.915 -2.97604 0
-532.306 -2.97559 0
-530.698 -2.97658 0
-529.087 -2.97179 0
-527.475 -2.97582 0
-525.865 -2.97557 0
-524.255 -2.97264 0
-522.642 -2.97417 0
-521.033 -2.97664 0
-519.424 -2.9773 0
-517.812 -2.98215 0
-516.204 -2.98098 0
-514.595 -2.98407 0
-512.982 -2.98374 0
-511.374 -2.98685 0
-509.765 -2.99428 0
-508.155 -2.99435 0
-506.546 -2.99624 0
-504.937 -3.00181 0
-503.325 -3.00438 0
-501.719 -3.00484 0
-500.11 -3.01012 0
-498.496 -3.01422 0
-496.888 -3.01947 0
-495.279 -3.02644 0
-493.667 -3.03181 0
-492.057 -3.031 0
-490.451 -3.03519 0
-488.842 -3.04221 0
-487.234 -3.04512 0
-485.625 -3.04998 0
-484.016 -3.0558 0
-482.407 -3.05645 0
-480.797 -3.05927 0
-479.188 -3.06288 0
-477.579 -3.06898 0
-475.972 -3.07308 0
-474.365 -3.07808 0
-472.754 -3.07863 0
-471.148 -3.08651 0
-469.541 -3.0879 0
-467.929 -3.09239 0
-466.319 -3.09816 0
-464.711 -3.1005 0
-463.102 -3.10834 0
-461.492 -3.11247 0
-459.884 -3.11445 0
-458.278 -3.11739 0
-456.667 -3.12441 0
-455.059 -3.12998 0
-453.448 -3.13238 0
-451.841 -3.13742 0
-450.234 -3.14222 0
-448.626 -3.14738 0
-447.016 -3.15132 0
-445.406 -3.15491 0
-443.798 -3.15448 0
-442.188 -3.16207 0
-440.58 -3.16149 0
-438.972 -3.16281 0
-437.368 -3.17081 0
-435.758 -3.17457 0
-434.15 -3.1778 0
-432.541 -3.17761 0
-430.932 -3.18201 0
-429.326 -3.18594 0
-427.719 -3.18949 0
-426.111 -3.19055 0
-424.503 -3.19349 0
-422.896 -3.19863 0
-421.288 -3.19897 0
-419.672 -3.20388 0
-418.067 -3.20328 0
-416.458 -3.20684 0
-414.854 -3.2079 0
-413.245 -3.21076 0
-411.635 -3.21032 0
-410.026 -3.21379 0
-408.418 -3.21676 0
-406.812 -3.21966 0
-405.203 -3.21838 0
-403.598 -3.22421 0
-401.99 -3.22354 0
-400.382 -3.22521 0
-398.772 -3.22611 0
-397.165 -3.22632 0
-395.555 -3.22939 0
-393.947 -3.22759 0
-392.337 -3.22697 0
-390.729 -3.22533 0
-389.125 -3.22542 0
-387.518 -3.22456 0
-385.906 -3.22678 0
-384.302 -3.22894 0
-382.694 -3.22801 0
-381.089 -3.22826 0
-379.479 -3.22582 0
-377.872 -3.22985 0
-376.262 -3.22772 0
-374.652 -3.22556 0
-373.046 -3.22466 0
-371.439 -3.22297 0
-369.831 -3.21965 0
-368.221 -3.22044 0
-366.613 -3.22291 0
-365.004 -3.22757 0
-363.396 -3.22714 0
-361.783 -3.22895 0
-360.175 -3.22408 0
-358.568 -3.22497 0
-356.963 -3.22411 0
-355.354 -3.2236 0
-353.75 -3.21946 0
-352.14 -3.21523 0
-350.531 -3.2207 0
-348.923 -3.22386 0
-347.314 -3.22009 0
-345.707 -3.21935 0
-344.101 -3.2156 0
-342.491 -3.21822 0
-340.881 -3.21372 0
-339.275 -3.20893 0
-337.666 -3.21008 0
-336.055 -3.20654 0
-334.449 -3.20897 0
-332.84 -3.20902 0
-331.232 -3.20877 0
-329.625 -3.20446 0
-328.014 -3.20104 0
-326.406 -3.19864 0
-324.794 -3.20314 0
-323.185 -3.20251 0
-321.579 -3.20232 0
-319.975 -3.1992 0
-318.366 -3.20024 0
-316.756 -3.19959 0
-315.146 -3.19772 0
-313.54 -3.1933 0
-311.932 -3.19402 0
-310.327 -3.18962 0
-308.719 -3.186 0
-307.11 -3.18579 0
-305.5 -3.18567 0
-303.892 -3.18998 0
-302.283 -3.18816 0
-300.672 -3.18378 0
-299.064 -3.18069 0
-297.456 -3.1863 0
-295.844 -3.18339 0
-294.238 -3.1834 0
-292.633 -3.18099 0
-291.024 -3.18295 0
-289.414 -3.17629 0
-287.809 -3.17318 0
-286.2 -3.17544 0
-284.595 -3.1731 0
-282.983 -3.17456 0
-281.377 -3.17677 0
-279.77 -3.17254 0
-278.159 -3.17463 0
-276.553 -3.17504 0
-274.944 -3.17927 0
-273.335 -3.17233 0
-271.724 -3.17277 0
-270.118 -3.17363 0
-268.508 -3.17651 0
-266.901 -3.17047 0
-265.292 -3.16836 0
-263.681 -3.16761 0
-262.072 -3.16812 0
-260.465 -3.16726 0
-258.858 -3.17048 0
-257.249 -3.16709 0
-255.64 -3.16806 0
-254.031 -3.16822 0
-252.425 -3.16561 0
-250.817 -3.16701 0
-249.209 -3.16419 0
-247.601 -3.16282 0
-245.997 -3.16109 0
-244.387 -3.16105 0
-242.78 -3.16296 0
-241.167 -3.16486 0
-239.561 -3.16111 0
-237.956 -3.16868 0
-236.343 -3.16651 0
-234.737 -3.16624 0
-233.129 -3.16518 0
-231.519 -3.16631 0
-229.912 -3.168 0
-228.303 -3.16587 0
-226.696 -3.1642 0
-225.087 -3.16142 0
-223.48 -3.16227 0
-221.87 -3.16792 0
-220.259 -3.16617 0
-218.65 -3.16527 0
-217.041 -3.16306 0
-215.436 -3.15984 0
-213.83 -3.16044 0
-212.218 -3.16017 0
-210.611 -3.16126 0
-209.004 -3.15824 0
-207.398 -3.16052 0
-205.786 -3.16177 0
-204.173 -3.15992 0
-202.567 -3.16297 0
-200.96 -3.16658 0
-199.347 -3.16697 0
-197.742 -3.161 0
-196.137 -3.16931 0
-194.528 -3.16391 0
-192.919 -3.16489 0
-191.31 -3.16412 0
-189.706 -3.16701 0
-188.097 -3.167 0
-186.487 -3.16325 0
-184.883 -3.16707 0
-183.274 -3.16857 0
-181.668 -3.16947 0
-180.057 -3.16559 0
-178.451 -3.16819 0
-176.841 -3.17478 0
-175.233 -3.17162 0
-173.627 -3.16794 0
-172.017 -3.17152 0
-170.407 -3.17529 0
-168.799 -3.17562 0
-167.195 -3.17511 0
-165.587 -3.17536 0
-163.977 -3.18009 0
-162.371 -3.17618 0
-160.761 -3.17294 0
-159.152 -3.17585 0
-157.546 -3.17412 0
-155.936 -3.17283 0
-154.331 -3.16977 0
-152.718 -3.17183 0
-151.109 -3.17367 0
-149.5 -3.17491 0
-147.894 -3.17562 0
-146.285 -3.17474 0
-144.682 -3.17396 0
-143.074 -3.17433 0
-141.469 -3.17467 0
-139.861 -3.17725 0
-138.25 -3.17781 0
-136.645 -3.17942 0
-135.041 -3.17819 0
-133.433 -3.1772 0
-131.823 -3.17595 0
-130.215 -3.17942 0
-128.608 -3.17631 0
-127 -3.17968 0
-125.392 -3.18094 0
-123.781 -3.1825 0
-122.173 -3.18219 0
-120.567 -3.17839 0
-118.959 -3.17811 0
-117.353 -3.17755 0
-115.742 -3.17411 0
-114.134 -3.17543 0
-112.528 -3.17544 0
-110.923 -3.18045 0
-109.313 -3.17878 0
-107.706 -3.18051 0
-106.1 -3.18338 0
-104.494 -3.18331 0
-102.885 -3.18131 0
-101.271 -3.1808 0
-99.6658 -3.18622 0
-98.0579 -3.18536 0
-96.4516 -3.18442 0
-94.8433 -3.18117 0
-93.2374 -3.18176 0
-91.63 -3.18085 0
-90.0214 -3.1827 0
-88.4151 -3.183 0
-86.8069 -3.184 0
-85.1998 -3.1806 0
-83.5929 -3.18 0
-81.9862 -3.18175 0
-80.376 -3.18102 0
-78.7674 -3.17904 0
-77.1619 -3.18192 0
-75.553 -3.18336 0
-73.9462 -3.18226 0
-72.3399 -3.18483 0
-70.7356 -3.184 0
-69.1272 -3.18025 0
-67.5198 -3.17947 0
-65.9123 -3.18031 0
-64.3049 -3.18087 0
-62.6961 -3.18346 0
-61.0864 -3.18391 0
-59.4823 -3.18396 0
-57.872 -3.18065 0
-56.2643 -3.18097 0
-54.6567 -3.1831 0
-53.0499 -3.18027 0
-51.4411 -3.18 0
-49.834 -3.18292 0
-48.2266 -3.1828 0
-46.621 -3.17974 0
-45.0147 -3.18122 0
-43.4086 -3.18279 0
-41.7971 -3.18376 0
-40.1886 -3.1844 0
-38.582 -3.18028 0
-36.9756 -3.18081 0
-35.3678 -3.18111 0
-33.7599 -3.18196 0
-32.1513 -3.18203 0
-30.5459 -3.18307 0
-28.9367 -3.1817 0
-27.3302 -3.18124 0
-25.7226 -3.17956 0
-24.1159 -3.17622 0
-22.5071 -3.17759 0
-20.899 -3.17944 0
-19.292 -3.18391 0
-17.6834 -3.17669 0
-16.0773 -3.18127 0
-14.4674 -3.18145 0
-12.8632 -3.17906 0
-11.2581 -3.17973 0
-9.64611 -3.17647 0
-8.0365 -3.17637 0
-6.42939 -3.17703 0
-4.82552 -3.17729 0
-3.21693 -3.17682 0
-1.60804 -3.18121 0
0 -3.18499 0
-1086.08 99.0582 0
-1086 88.9616 0
-1086.08 79.2409 0
-1086.11 69.757 0
-1086.08 60.5384 0
-1085.95 51.6367 0
-1085.74 43.1214 0
-1085.44 35.0614 0
-1085.09 27.5102 0
-1084.67 20.4987 0
-1084.19 14.0489 0
-1083.66 8.17356 0
-1083.12 2.8573 0
-1082.63 -1.99888 0
-1082.19 -6.46355 0
-1081.8 -10.5802 0
-1081.38 -14.3735 0
-1080.91 -17.8136 0
-1080.4 -20.8747 0
-1079.85 -23.5463 0
-1079.29 -25.8322 0
-1078.71 -27.7352 0
-1078.13 -29.2807 0
-1077.52 -30.4963 0
-1076.9 -31.3925 0
-1076.26 -32.0087 0
-1075.6 -32.3674 0
-1074.91 -32.4989 0
-1074.19 -32.4249 0
-1073.43 -32.1676 0
-1072.64 -31.7439 0
-1071.8 -31.1771 0
-1070.93 -30.4825 0
-1070.01 -29.6715 0
-1069.06 -28.7629 0
-1068.06 -27.7707 0
-1067.02 -26.7033 0
-1065.95 -25.5687 0
-1064.83 -24.3849 0
-1063.68 -23.1591 0
-1062.49 -21.9 0
-1061.27 -20.6189 0
-1060.01 -19.3183 0
-1058.71 -18.0068 0
-1057.39 -16.6953 0
-1056.03 -15.3874 0
-1054.64 -14.0851 0
-1053.23 -12.7989 0
-1051.79 -11.528 0
-1050.32 -10.2779 0
-1048.83 -9.05342 0
-1047.32 -7.8592 0
-1045.78 -6.69535 0
-1044.23 -5.56621 0
-1042.66 -4.4713 0
-1041.07 -3.41552 0
-1039.46 -2.40053 0
-1037.84 -1.42469 0
-1036.2 -0.491346 0
-1034.55 0.398787 0
-1032.88 1.24653 0
-1031.21 2.05003 0
-1029.52 2.808 0
-1027.83 3.52177 0
-1026.13 4.19078 0
-1024.42 4.81149 0
-1022.7 5.38752 0
-1020.97 5.92099 0
-1019.24 6.4096 0
-1017.51 6.85449 0
-1015.77 7.25913 0
-1014.03 7.61936 0
-1012.29 7.93718 0
-1010.55 8.21723 0
-1008.8 8.45801 0
-1007.05 8.65967 0
-1005.3 8.82364 0
-1003.56 8.95206 0
-1001.81 9.04517 0
-1000.07 9.10375 0
-998.323 9.12969 0
-996.582 9.12619 0
-994.844 9.0913 0
-993.107 9.02765 0
-991.375 8.93803 0
-989.645 8.82071 0
-987.918 8.6803 0
-986.196 8.51769 0
-984.479 8.33122 0
-982.767 8.12241 0
-981.058 7.89698 0
-979.353 7.6533 0
-977.653 7.39402 0
-975.958 7.11955 0
-974.268 6.83132 0
-972.583 6.53126 0
-970.903 6.22074 0
-969.225 5.9003 0
-967.556 5.56935 0
-965.891 5.23266 0
-964.23 4.89045 0
-962.575 4.54225 0
-960.924 4.19426 0
-959.277 3.83888 0
-957.636 3.48326 0
-955.999 3.12926 0
-954.367 2.77359 0