<?xml version="1.0"?>
<VTKFile type="StructuredGrid"  version="0.1" byte_order="LittleEndian" compressor="vtkZLibDataCompressor">
  <StructuredGrid WholeExtent="0 700 0 30 0 0">
    <Piece Extent="0 700 0 30 0 0">
      <PointData Vectors="Velocity">
        <DataArray type="Float32" Name="Velocity" NumberOfComponents="3" format="ascii">
-1087.39 157.764 0
-1087.67 145.181 0
-1088 132.717 0
-1088.35 120.462 0
-1088.71 108.439 0
-1089.12 96.7179 0
-1089.59 85.3564 0
-1090.1 74.4273 0
-1090.64 63.9836 0
-1091.21 54.0424 0
-1091.77 44.625 0
-1092.31 35.752 0
-1092.85 27.4408 0
-1093.36 19.7079 0
-1093.81 12.5778 0
-1094.15 5.99913 0
-1094.37 -0.175727 0
-1094.55 -6.03823 0
-1094.79 -11.5607 0
-1095.07 -16.6852 0
-1095.31 -21.4088 0
-1095.52 -25.7479 0
-1095.71 -29.6833 0
-1095.89 -33.2393 0
-1096.04 -36.4228 0
-1096.15 -39.2386 0
-1096.23 -41.7024 0
-1096.27 -43.8284 0
-1096.27 -45.6437 0
-1096.21 -47.1507 0
-1096.09 -48.3844 0
-1095.91 -49.3587 0
-1095.68 -50.0914 0
-1095.39 -50.5907 0
-1095.03 -50.8741 0
-1094.61 -50.9619 0
-1094.13 -50.8652 0
-1093.6 -50.6038 0
-1093 -50.1753 0
-1092.35 -49.6049 0
-1091.63 -48.8989 0
-1090.86 -48.0709 0
-1090.04 -47.1299 0
-1089.15 -46.0852 0
-1088.22 -44.948 0
-1087.23 -43.7372 0
-1086.19 -42.4462 0
-1085.11 -41.0903 0
-1083.97 -39.675 0
-1082.79 -38.2052 0
-1081.56 -36.7021 0
-1080.29 -35.156 0
-1078.98 -33.5826 0
-1077.64 -31.9902 0
-1076.25 -30.3806 0
-1074.83 -28.7541 0
-1073.37 -27.1216 0
-1071.88 -25.4903 0
-1070.35 -23.8563 0
-1068.8 -22.227 0
-1067.22 -20.607 0
-1065.61 -19.0081 0
-1063.97 -17.427 0
-1062.31 -15.8578 0
-1060.62 -14.3146 0
-1058.91 -12.7969 0
-1057.19 -11.3084 0
-1055.44 -9.84961 0
-1053.68 -8.42098 0
-1051.9 -7.02746 0
-1050.1 -5.6712 0
-1048.29 -4.34858 0
-1046.47 -3.06161 0
-1044.63 -1.81629 0
-1042.78 -0.612349 0
-1040.92 0.548553 0
-1039.05 1.6668 0
-1037.17 2.74089 0
-1035.29 3.77582 0
-1033.39 4.7634 0
-1031.49 5.7089 0
-1029.59 6.61118 0
-1027.67 7.46507 0
-1025.76 8.27136 0
-1023.84 9.03771 0
-1021.92 9.75773 0
-1019.99 10.4329 0
-1018.07 11.0593 0
-1016.15 11.651 0
-1014.22 12.1917 0
-1012.29 12.6896 0
-1010.37 13.1486 0
-1008.44 13.5642 0
-1006.52 13.9359 0
-1004.6 14.2691 0
-1002.68 14.5585 0
-1000.77 14.8108 0
-998.857 15.0203 0
-996.952 15.1953 0
-995.047 15.3359 0
-993.147 15.4368 0
-991.253 15.5023 0
-989.36 15.5324 0
-987.478 15.5334 0
-985.599 15.4975 0
-983.726 15.4326 0
-981.858 15.3356 0
-979.998 15.2049 0
-978.144 15.0513 0
-976.298 14.8676 0
-974.459 14.6587 0
-972.624 14.4318 0
-970.801 14.1764 0
-968.979 13.8972 0
-967.167 13.5933 0
-965.361 13.2718 0
-963.565 12.9318 0
-961.774 12.5719 0
-959.991 12.1977 0
-958.216 11.8072 0
-956.446 11.3992 0
-954.684 10.9772 0
-952.928 10.5447 0
-951.179 10.0995 0
-949.442 9.64321 0
-947.708 9.17667 0
-945.982 8.70198 0
-944.263 8.21924 0
-942.548 7.73372 0
-940.839 7.23875 0
-939.141 6.7385 0
-937.448 6.23654 0
-935.759 5.73084 0
-934.078 5.22843 0
-932.405 4.71607 0
-930.737 4.2096 0
-929.074 3.70119 0
-927.416 3.19659 0
-925.764 2.6929 0
-924.115 2.19248 0
-922.473 1.6985 0
-920.833 1.20766 0
-919.201 0.720471 0
-917.572 0.23671 0
-915.944 -0.235559 0
-914.325 -0.705853 0
-912.707 -1.16566 0
-911.096 -1.61979 0
-909.484 -2.06296 0
-907.877 -2.49953 0
-906.275 -2.92784 0
-904.673 -3.34385 0
-903.077 -3.75319 0
-901.48 -4.14669 0
-899.888 -4.53236 0
-898.297 -4.90707 0
-896.709 -5.26889 0
-895.121 -5.61956 0
-893.534 -5.96566 0
-891.951 -6.29419 0
-890.369 -6.61296 0
-888.788 -6.91703 0
-887.208 -7.21043 0
-885.631 -7.49114 0
-884.053 -7.75784 0
-882.475 -8.01085 0
-880.897 -8.25403 0
-879.323 -8.48502 0
-877.747 -8.70223 0
-876.17 -8.90774 0
-874.596 -9.09583 0
-873.021 -9.27822 0
-871.443 -9.44699 0
-869.866 -9.60204 0
-868.289 -9.74739 0
-866.71 -9.87916 0
-865.132 -9.99946 0
-863.552 -10.1081 0
-861.971 -10.2069 0
-860.39 -10.2916 0
-858.807 -10.3661 0
-857.225 -10.4303 0
-855.643 -10.4815 0
-854.057 -10.5257 0
-852.469 -10.5615 0
-850.881 -10.5849 0
-849.289 -10.6004 0
-847.699 -10.6057 0
-846.104 -10.6028 0
-844.51 -10.5907 0
-842.914 -10.5692 0
-841.315 -10.5416 0
-839.713 -10.5048 0
-838.112 -10.4611 0
-836.509 -10.4068 0
-834.904 -10.351 0
-833.298 -10.2822 0
-831.689 -10.2067 0
-830.079 -10.1288 0
-828.468 -10.0417 0
-826.851 -9.95096 0
-825.236 -9.85697 0
-823.621 -9.75307 0
-822.002 -9.64866 0
-820.378 -9.53639 0
-818.756 -9.422 0
-817.132 -9.30576 0
-815.508 -9.18093 0
-813.878 -9.05315 0
-812.248 -8.92334 0
-810.616 -8.79264 0
-808.981 -8.65809 0
-807.347 -8.52587 0
-805.709 -8.3852 0
-804.068 -8.24462 0
-802.429 -8.10381 0
-800.786 -7.96311 0
-799.14 -7.81959 0
-797.497 -7.67037 0
-795.847 -7.52732 0
-794.201 -7.38181 0
-792.552 -7.23378 0
-790.902 -7.08796 0
-789.248 -6.94115 0
-787.592 -6.7963 0
-785.937 -6.65336 0
-784.286 -6.51085 0
-782.626 -6.36592 0
-780.967 -6.22134 0
-779.308 -6.08275 0
-777.648 -5.94293 0
-775.984 -5.80532 0
-774.321 -5.6704 0
-772.659 -5.53474 0
-770.989 -5.40369 0
-769.323 -5.27417 0
-767.657 -5.14754 0
-765.992 -5.01882 0
-764.321 -4.89564 0
-762.653 -4.77428 0
-760.987 -4.66045 0
-759.315 -4.54433 0
-757.642 -4.43572 0
-755.97 -4.32803 0
-754.298 -4.22014 0
-752.624 -4.11656 0
-750.951 -4.01772 0
-749.28 -3.9222 0
-747.606 -3.83296 0
-745.931 -3.74199 0
-744.255 -3.6565 0
-742.581 -3.57162 0
-740.906 -3.49473 0
-739.229 -3.41826 0
-737.552 -3.34407 0
-735.878 -3.27623 0
-734.205 -3.20716 0
-732.526 -3.14862 0
-730.852 -3.08693 0
-729.176 -3.03107 0
-727.501 -2.9784 0
-725.825 -2.9317 0
-724.151 -2.88834 0
-722.476 -2.84647 0
-720.801 -2.80744 0
-719.127 -2.77395 0
-717.452 -2.74119 0
-715.776 -2.71151 0
-714.1 -2.68952 0
-712.424 -2.66478 0
-710.752 -2.64974 0
-709.076 -2.63019 0
-707.4 -2.62111 0
-705.732 -2.61142 0
-704.054 -2.60578 0
-702.381 -2.60281 0
-700.711 -2.59896 0
-699.04 -2.6032 0
-697.368 -2.60958 0
-695.697 -2.61261 0
-694.026 -2.62205 0
-692.355 -2.63485 0
-690.687 -2.64983 0
-689.017 -2.66637 0
-687.349 -2.68038 0
-685.678 -2.70353 0
-684.01 -2.72901 0
-682.34 -2.75765 0
-680.673 -2.78655 0
-679.004 -2.81619 0
-677.339 -2.84812 0
-675.674 -2.88494 0
-674.014 -2.91851 0
-672.348 -2.95144 0
-670.685 -2.99029 0
-669.023 -3.03277 0
-667.358 -3.07339 0
-665.698 -3.11717 0
-664.038 -3.15699 0
-662.375 -3.20526 0
-660.712 -3.2476 0
-659.051 -3.30066 0
-657.392 -3.34552 0
-655.734 -3.39547 0
-654.078 -3.4444 0
-652.419 -3.49487 0
-650.757 -3.54487 0
-649.101 -3.59473 0
-647.443 -3.65154 0
-645.788 -3.70348 0
-644.134 -3.75523 0
-642.479 -3.80904 0
-640.828 -3.86146 0
-639.171 -3.91205 0
-637.515 -3.96726 0
-635.86 -4.02012 0
-634.208 -4.07622 0
-632.552 -4.12885 0
-630.896 -4.18565 0
-629.243 -4.23493 0
-627.596 -4.28453 0
-625.943 -4.33885 0
-624.291 -4.38854 0
-622.641 -4.44395 0
-620.993 -4.49276 0
-619.344 -4.54346 0
-617.689 -4.59194 0
-616.038 -4.6446 0
-614.388 -4.6922 0
-612.74 -4.74303 0
-611.089 -4.7932 0
-609.443 -4.83813 0
-607.795 -4.88875 0
-606.149 -4.9303 0
-604.498 -4.97664 0
-602.852 -5.02039 0
-601.2 -5.06322 0
-599.556 -5.10926 0
-597.908 -5.15065 0
-596.261 -5.1909 0
-594.613 -5.22672 0
-592.962 -5.2698 0
-591.315 -5.30126 0
-589.67 -5.34122 0
-588.02 -5.37797 0
-586.378 -5.41189 0
-584.732 -5.44147 0
-583.086 -5.48065 0
-581.442 -5.50855 0
-579.797 -5.54039 0
-578.145 -5.56844 0
-576.497 -5.60093 0
-574.853 -5.62608 0
-573.204 -5.64886 0
-571.557 -5.67509 0
-569.908 -5.69827 0
-568.264 -5.71745 0
-566.617 -5.73866 0
-564.973 -5.76612 0
-563.327 -5.78425 0
-561.679 -5.80357 0
-560.034 -5.82252 0
-558.389 -5.8334 0
-556.746 -5.8501 0
-555.102 -5.86422 0
-553.453 -5.87455 0
-551.806 -5.88792 0
-550.161 -5.90052 0
-548.517 -5.90854 0
-546.871 -5.91653 0
-545.22 -5.92354 0
-543.572 -5.92736 0
-541.925 -5.93793 0
-540.278 -5.94496 0
-538.632 -5.9435 0
-536.983 -5.94565 0
-535.339 -5.94351 0
-533.689 -5.94607 0
-532.042 -5.95291 0
-530.397 -5.95116 0
-528.753 -5.95815 0
-527.106 -5.94738 0
-525.456 -5.94622 0
-523.811 -5.93838 0
-522.164 -5.93303 0
-520.514 -5.93116 0
-518.864 -5.92493 0
-517.218 -5.91753 0
-515.571 -5.90799 0
-513.923 -5.90126 0
-512.273 -5.89316 0
-510.627 -5.88356 0
-508.975 -5.87553 0
-507.325 -5.86758 0
-505.677 -5.8564 0
-504.026 -5.84222 0
-502.377 -5.82668 0
-500.726 -5.82167 0
-499.071 -5.80569 0
-497.421 -5.79439 0
-495.778 -5.78199 0
-494.127 -5.76722 0
-492.473 -5.75779 0
-490.826 -5.73968 0
-489.173 -5.72359 0
-487.521 -5.70639 0
-485.872 -5.69338 0
-484.221 -5.6774 0
-482.569 -5.66118 0
-480.917 -5.64434 0
-479.272 -5.6289 0
-477.615 -5.61396 0
-475.964 -5.59774 0
-474.312 -5.58337 0
-472.661 -5.56276 0
-471.007 -5.54725 0
-469.351 -5.53084 0
-467.699 -5.51738 0
-466.046 -5.49632 0
-464.393 -5.48052 0
-462.738 -5.46574 0
-461.086 -5.44554 0
-459.431 -5.43738 0
-457.782 -5.41485 0
-456.132 -5.3961 0
-454.476 -5.38069 0
-452.821 -5.36353 0
-451.169 -5.34868 0
-449.518 -5.32894 0
-447.861 -5.31732 0
-446.211 -5.29857 0
-444.556 -5.28329 0
-442.9 -5.26711 0
-441.248 -5.25279 0
-439.596 -5.24038 0
-437.941 -5.22904 0
-436.287 -5.21142 0
-434.636 -5.19564 0
-432.983 -5.17854 0
-431.327 -5.16158 0
-429.669 -5.15169 0
-428.015 -5.13655 0
-426.363 -5.12411 0
-424.706 -5.10807 0
-423.048 -5.10142 0
-421.392 -5.0882 0
-419.74 -5.07307 0
-418.084 -5.05953 0
-416.427 -5.04862 0
-414.773 -5.03686 0
-413.119 -5.02724 0
-411.46 -5.01649 0
-409.807 -5.00321 0
-408.154 -4.99682 0
-406.496 -4.98497 0
-404.844 -4.97738 0
-403.19 -4.96465 0
-401.539 -4.95379 0
-399.882 -4.94566 0
-398.221 -4.94181 0
-396.568 -4.93664 0
-394.911 -4.92241 0
-393.263 -4.9215 0
-391.609 -4.91049 0
-389.952 -4.90029 0
-388.298 -4.89424 0
-386.643 -4.88933 0
-384.99 -4.88068 0
-383.334 -4.88007 0
-381.679 -4.87392 0
-380.028 -4.86935 0
-378.369 -4.86586 0
-376.713 -4.86413 0
-375.057 -4.84884 0
-373.403 -4.85094 0
-371.744 -4.84601 0
-370.091 -4.84328 0
-368.434 -4.84307 0
-366.782 -4.83968 0
-365.129 -4.84111 0
-363.474 -4.84058 0
-361.822 -4.83704 0
-360.164 -4.83427 0
-358.511 -4.83337 0
-356.859 -4.83495 0
-355.204 -4.83638 0
-353.55 -4.83255 0
-351.897 -4.83496 0
-350.238 -4.83333 0
-348.583 -4.83025 0
-346.929 -4.83077 0
-345.274 -4.83266 0
-343.619 -4.83835 0
-341.97 -4.83744 0
-340.316 -4.8371 0
-338.665 -4.83918 0
-337.01 -4.84312 0
-335.354 -4.83957 0
-333.697 -4.84172 0
-332.045 -4.84648 0
-330.393 -4.84755 0
-328.734 -4.85415 0
-327.081 -4.85391 0
-325.434 -4.85529 0
-323.783 -4.86117 0
-322.134 -4.86726 0
-320.48 -4.86899 0
-318.829 -4.86967 0
-317.172 -4.87634 0
-315.515 -4.87604 0
-313.859 -4.88057 0
-312.211 -4.88404 0
-310.56 -4.88378 0
-308.906 -4.88878 0
-307.252 -4.89066 0
-305.598 -4.89585 0
-303.943 -4.89562 0
-302.289 -4.9004 0
-300.636 -4.90776 0
-298.98 -4.91009 0
-297.331 -4.91628 0
-295.682 -4.92288 0
-294.029 -4.93294 0
-292.378 -4.93583 0
-290.722 -4.93947 0
-289.07 -4.94537 0
-287.413 -4.94991 0
-285.762 -4.95138 0
-284.109 -4.95667 0
-282.453 -4.96185 0
-280.803 -4.97086 0
-279.154 -4.96731 0
-277.502 -4.97367 0
-275.848 -4.97725 0
-274.201 -4.9788 0
-272.554 -4.98465 0
-270.899 -4.98432 0
-269.245 -4.98727 0
-267.59 -4.99452 0
-265.935 -4.9982 0
-264.286 -4.99326 0
-262.635 -5.00111 0
-260.984 -5.00727 0
-259.334 -5.01235 0
-257.675 -5.01976 0
-256.026 -5.0149 0
-254.373 -5.01715 0
-252.721 -5.02481 0
-251.071 -5.02762 0
-249.421 -5.0371 0
-247.763 -5.04465 0
-246.116 -5.04115 0
-244.463 -5.0399 0
-242.809 -5.03996 0
-241.155 -5.04841 0
-239.501 -5.0507 0
-237.851 -5.05096 0
-236.197 -5.0571 0
-234.548 -5.05876 0
-232.899 -5.06271 0
-231.25 -5.06067 0
-229.598 -5.05732 0
-227.939 -5.06539 0
-226.294 -5.06692 0
-224.643 -5.06311 0
-222.994 -5.06614 0
-221.342 -5.06576 0
-219.686 -5.07166 0
-218.035 -5.07611 0
-216.384 -5.07193 0
-214.73 -5.07404 0
-213.076 -5.07752 0
-211.42 -5.0855 0
-209.778 -5.08197 0
-208.129 -5.08045 0
-206.477 -5.08432 0
-204.827 -5.07981 0
-203.177 -5.07987 0
-201.526 -5.07543 0
-199.874 -5.08049 0
-198.223 -5.08118 0
-196.57 -5.081 0
-194.917 -5.0771 0
-193.262 -5.07807 0
-191.615 -5.07687 0
-189.957 -5.07962 0
-188.306 -5.08228 0
-186.656 -5.07941 0
-185.009 -5.08092 0
-183.358 -5.08212 0
-181.705 -5.07621 0
-180.05 -5.08093 0
-178.401 -5.07122 0
-176.749 -5.07271 0
-175.096 -5.08235 0
-173.441 -5.07935 0
-171.792 -5.07595 0
-170.139 -5.07445 0
-168.491 -5.06924 0
-166.84 -5.07719 0
-165.191 -5.07571 0
-163.544 -5.06438 0
-161.889 -5.06871 0
-160.239 -5.05595 0
-158.59 -5.06107 0
-156.931 -5.05859 0
-155.279 -5.05595 0
-153.625 -5.05697 0
-151.973 -5.06107 0
-150.324 -5.05599 0
-148.674 -5.04839 0
-147.022 -5.04757 0
-145.369 -5.04152 0
-143.721 -5.04306 0
-142.065 -5.04343 0
-140.407 -5.04148 0
-138.759 -5.03402 0
-137.109 -5.03315 0
-135.461 -5.03101 0
-133.81 -5.02559 0
-132.157 -5.02209 0
-130.498 -5.0214 0
-128.841 -5.02138 0
-127.191 -5.02138 0
-125.543 -5.01477 0
-123.892 -5.0151 0
-122.245 -5.00924 0
-120.588 -5.00877 0
-118.939 -5.00811 0
-117.282 -5.00094 0
-115.628 -4.99491 0
-113.979 -4.99599 0
-112.324 -4.99971 0
-110.679 -4.99048 0
-109.024 -4.98444 0
-107.375 -4.97996 0
-105.725 -4.98714 0
-104.069 -4.97802 0
-102.422 -4.97994 0
-100.763 -4.97945 0
-99.1154 -4.98034 0
-97.4594 -4.97882 0
-95.8123 -4.97538 0
-94.1589 -4.96719 0
-92.5121 -4.97032 0
-90.8617 -4.96819 0
-89.2149 -4.96387 0
-87.5595 -4.95743 0
-85.9074 -4.9524 0
-84.255 -4.95041 0
-82.6059 -4.95542 0
-80.9514 -4.95728 0
-79.2978 -4.95109 0
-77.6496 -4.94579 0
-75.9955 -4.94769 0
-74.3404 -4.94023 0
-72.6889 -4.94329 0
-71.0361 -4.93795 0
-69.3864 -4.93478 0
-67.7374 -4.93413 0
-66.0807 -4.93236 0
-64.4306 -4.92882 0
-62.7721 -4.92974 0
-61.12 -4.92645 0
-59.471 -4.92521 0
-57.8186 -4.92338 0
-56.1655 -4.92106 0
-54.5161 -4.9142 0
-52.8584 -4.91249 0
-51.2081 -4.91266 0
-49.5565 -4.91388 0
-47.9068 -4.90927 0
-46.2586 -4.90139 0
-44.6057 -4.90176 0
-42.9493 -4.90016 0
-41.2918 -4.89861 0
-39.6441 -4.90097 0
-37.994 -4.9007 0
-36.3363 -4.89493 0
-34.6829 -4.90142 0
-33.0317 -4.89558 0
-31.3796 -4.90223 0
-29.7288 -4.89675 0
-28.0814 -4.89834 0
-26.4268 -4.88951 0
-24.7808 -4.89004 0
-23.1309 -4.88685 0
-21.4769 -4.88894 0
-19.8303 -4.88954 0
-18.1733 -4.88758 0
-16.5179 -4.89058 0
-14.865 -4.88795 0
-13.2125 -4.8813 0
-11.5631 -4.88205 0
-9.90976 -4.89363 0
-8.25436 -4.88267 0
-6.607 -4.88581 0
-4.953 -4.8823 0
-3.30607 -4.8832 0
-1.65278 -4.88152 0
0 -4.87795 0
-1099.98 158.071 0
-1100.15 145.445 0
-1100.31 132.956 0
-1100.46 120.685 0
-1100.6 108.648 0
-1100.7 96.8917 0
-1100.78 85.4903 0
-1100.83 74.5169 0
-1100.87 64.0354 0
-1100.9 54.068 0
-1100.92 44.6351 0
-1100.9 35.7587 0
-1100.84 27.4555 0
-1100.73 19.7352 0
-1100.59 12.6324 0
-1100.46 6.06787 0
-1100.39 -0.104514 0
-1100.31 -5.97059 0
-1100.19 -11.5008 0
-1100.03 -16.6289 0
-1099.86 -21.3483 0
-1099.69 -25.6797 0
-1099.51 -29.6203 0
-1099.31 -33.168 0
-1099.09 -36.3332 0
-1098.85 -39.1292 0
-1098.58 -41.5654 0
-1098.29 -43.6643 0
-1097.97 -45.4416 0
-1097.61 -46.9098 0
-1097.22 -48.0998 0
-1096.79 -49.0278 0
-1096.32 -49.7102 0
-1095.8 -50.1576 0
-1095.23 -50.3923 0
-1094.62 -50.4287 0
-1093.97 -50.2799 0
-1093.27 -49.9615 0
-1092.51 -49.4817 0
-1091.72 -48.8573 0
-1090.88 -48.1015 0
-1089.99 -47.2217 0
-1089.05 -46.2298 0
-1088.07 -45.1366 0
-1087.05 -43.954 0
-1085.99 -42.691 0
-1084.88 -41.3566 0
-1083.73 -39.9545 0
-1082.54 -38.4951 0
-1081.31 -36.9864 0
-1080.05 -35.4415 0
-1078.75 -33.8564 0
-1077.41 -32.2465 0
-1076.04 -30.6166 0
-1074.64 -28.9694 0
-1073.21 -27.3141 0
-1071.75 -25.65 0
-1070.25 -23.9842 0
-1068.73 -22.3232 0
-1067.19 -20.6641 0
-1065.62 -19.0201 0
-1064.02 -17.3953 0
-1062.4 -15.7889 0
-1060.76 -14.1981 0
-1059.1 -12.633 0
-1057.43 -11.0967 0
-1055.73 -9.59189 0
-1054.01 -8.11313 0
-1052.28 -6.66753 0
-1050.54 -5.26048 0
-1048.78 -3.88696 0
-1047 -2.55189 0
-1045.22 -1.25335 0
-1043.42 0.00335784 0
-1041.61 1.21884 0
-1039.79 2.38863 0
-1037.96 3.5169 0
-1036.13 4.6018 0
-1034.28 5.64005 0
-1032.44 6.63556 0
-1030.58 7.58603 0
-1028.72 8.49012 0
-1026.85 9.35073 0
-1024.98 10.1619 0
-1023.11 10.9297 0
-1021.23 11.6529 0
-1019.35 12.3286 0
-1017.47 12.9595 0
-1015.59 13.549 0
-1013.7 14.0906 0
-1011.82 14.5918 0
-1009.93 15.0463 0
-1008.05 15.4594 0
-1006.17 15.8308 0
-1004.29 16.1608 0
-1002.42 16.4488 0
-1000.54 16.6954 0
-998.667 16.9051 0
-996.796 17.0768 0
-994.929 17.211 0
-993.066 17.309 0
-991.206 17.3714 0
-989.348 17.3978 0
-987.497 17.3919 0
-985.649 17.3503 0
-983.808 17.2782 0
-981.972 17.1766 0
-980.141 17.0427 0
-978.315 16.8804 0
-976.495 16.6908 0
-974.677 16.4787 0
-972.869 16.2415 0
-971.067 15.9806 0
-969.27 15.6952 0
-967.479 15.3867 0
-965.692 15.057 0
-963.914 14.7102 0
-962.141 14.3445 0
-960.373 13.9616 0
-958.613 13.5636 0
-956.859 13.1511 0
-955.111 12.7225 0
-953.367 12.2829 0
-951.63 11.8314 0
-949.901 11.3674 0
-948.176 10.8947 0
-946.457 10.4158 0
-944.742 9.92592 0
-943.037 9.43287 0
-941.336 8.93284 0
-939.64 8.42667 0
-937.948 7.91959 0
-936.263 7.40962 0
-934.584 6.89692 0
-932.908 6.38191 0
-931.24 5.86787 0
-929.577 5.35597 0
-927.917 4.84818 0
-926.261 4.33788 0
-924.61 3.83408 0
-922.962 3.33367 0
-921.322 2.83963 0
-919.683 2.34778 0
-918.046 1.86254 0
-916.415 1.38324 0
-914.787 0.911232 0
-913.164 0.446298 0
-911.54 -0.00979897 0
-909.923 -0.456279 0
-908.307 -0.896674 0
-906.695 -1.32525 0
-905.084 -1.74632 0
-903.476 -2.15673 0
-901.869 -2.55319 0
-900.265 -2.94105 0
-898.663 -3.31846 0
-897.064 -3.68121 0
-895.467 -4.03585 0
-893.87 -4.3784 0
-892.272 -4.71194 0
-890.679 -5.03149 0
-889.087 -5.33757 0
-887.495 -5.63071 0
-885.904 -5.91242 0
-884.312 -6.17965 0
-882.722 -6.43516 0
-881.134 -6.67553 0
-879.544 -6.90779 0
-877.956 -7.1249 0
-876.367 -7.33049 0
-874.78 -7.52181 0
-873.192 -7.7029 0
-871.603 -7.86968 0
-870.014 -8.026 0
-868.426 -8.17039 0
-866.836 -8.30119 0
-865.245 -8.42111 0
-863.653 -8.52899 0
-862.062 -8.62493 0
-860.471 -8.71067 0
-858.877 -8.7831 0
-857.285 -8.84782 0
-855.689 -8.89917 0
-854.093 -8.94103 0
-852.497 -8.97458 0
-850.898 -8.99745 0
-849.3 -9.01053 0
-847.699 -9.01532 0
-846.096 -9.0095 0
-844.492 -8.99709 0
-842.888 -8.97527 0
-841.282 -8.94462 0
-839.675 -8.90574 0
-838.064 -8.86035 0
-836.453 -8.80536 0
-834.841 -8.74638 0
-833.228 -8.67555 0
-831.613 -8.60075 0
-829.997 -8.51974 0
-828.379 -8.43188 0
-826.76 -8.34127 0
-825.139 -8.24491 0
-823.517 -8.14007 0
-821.894 -8.03157 0
-820.27 -7.91842 0
-818.641 -7.80461 0
-817.013 -7.68347 0
-815.382 -7.5579 0
-813.749 -7.42943 0
-812.117 -7.2997 0
-810.484 -7.16382 0
-808.849 -7.02983 0
-807.211 -6.89344 0
-805.571 -6.75436 0
-803.929 -6.61273 0
-802.288 -6.46917 0
-800.644 -6.32441 0
-798.998 -6.17822 0
-797.352 -6.03065 0
-795.706 -5.88534 0
-794.057 -5.7388 0
-792.408 -5.59035 0
-790.757 -5.44136 0
-789.104 -5.29413 0
-787.45 -5.14714 0
-785.795 -5.00417 0
-784.141 -4.86166 0
-782.485 -4.71411 0
-780.827 -4.57159 0
-779.169 -4.43022 0
-777.508 -4.28951 0
-775.847 -4.14994 0
-774.186 -4.01517 0
-772.521 -3.87959 0
-770.861 -3.74619 0
-769.196 -3.61528 0
-767.532 -3.48785 0
-765.867 -3.35907 0
-764.2 -3.23811 0
-762.534 -3.11539 0
-760.868 -2.99813 0
-759.201 -2.88145 0
-757.534 -2.77075 0
-755.864 -2.66378 0
-754.195 -2.55705 0
-752.524 -2.45232 0
-750.856 -2.35383 0
-749.185 -2.25758 0
-747.515 -2.16394 0
-745.843 -2.07393 0
-744.172 -1.98732 0
-742.502 -1.9055 0
-740.831 -1.82481 0
-739.158 -1.74981 0
-737.484 -1.6761 0
-735.811 -1.60864 0
-734.138 -1.54048 0
-732.469 -1.47861 0
-730.795 -1.42231 0
-729.125 -1.36393 0
-727.451 -1.31186 0
-725.78 -1.26556 0
-724.109 -1.22142 0
-722.438 -1.1789 0
-720.766 -1.14068 0
-719.094 -1.10572 0
-717.42 -1.07644 0
-715.747 -1.04501 0
-714.075 -1.02392 0
-712.404 -1.00264 0
-710.736 -0.985218 0
-709.065 -0.964949 0
-707.392 -0.954766 0
-705.719 -0.945123 0
-704.049 -0.938033 0
-702.38 -0.936255 0
-700.71 -0.936787 0
-699.042 -0.93791 0
-697.373 -0.944002 0
-695.703 -0.949956 0
-694.034 -0.959802 0
-692.369 -0.972978 0
-690.701 -0.98606 0
-689.035 -1.00318 0
-687.367 -1.0206 0
-685.701 -1.04257 0
-684.034 -1.06965 0
-682.369 -1.09707 0
-680.701 -1.12563 0
-679.04 -1.15629 0
-677.378 -1.19088 0
-675.714 -1.22714 0
-674.048 -1.25897 0
-672.384 -1.29568 0
-670.724 -1.33319 0
-669.062 -1.3761 0
-667.401 -1.41901 0
-665.742 -1.46115 0
-664.08 -1.50428 0
-662.419 -1.5486 0
-660.76 -1.59454 0
-659.101 -1.64533 0
-657.44 -1.69359 0
-655.784 -1.74612 0
-654.126 -1.79382 0
-652.468 -1.84093 0
-650.807 -1.89318 0
-649.15 -1.94636 0
-647.497 -1.99905 0
-645.842 -2.0533 0
-644.186 -2.10643 0
-642.532 -2.16084 0
-640.877 -2.21397 0
-639.223 -2.26429 0
-637.568 -2.31784 0
-635.913 -2.37306 0
-634.259 -2.42747 0
-632.608 -2.4811 0
-630.954 -2.53752 0
-629.301 -2.59076 0
-627.647 -2.64161 0
-625.997 -2.69292 0
-624.344 -2.74336 0
-622.694 -2.79885 0
-621.042 -2.84794 0
-619.392 -2.89887 0
-617.741 -2.94979 0
-616.089 -3.00027 0
-614.439 -3.05003 0
-612.788 -3.1011 0
-611.137 -3.14853 0
-609.49 -3.19642 0
-607.842 -3.24466 0
-606.193 -3.28902 0
-604.544 -3.33413 0
-602.894 -3.37889 0
-601.246 -3.42475 0
-599.598 -3.46601 0
-597.949 -3.5075 0
-596.3 -3.55008 0
-594.652 -3.58751 0
-593 -3.62852 0
-591.352 -3.6636 0
-589.705 -3.69875 0
-588.059 -3.7376 0
-586.411 -3.77243 0
-584.764 -3.80469 0
-583.118 -3.83859 0
-581.469 -3.86838 0
-579.822 -3.89983 0
-578.172 -3.92871 0
-576.523 -3.95757 0
-574.876 -3.9848 0
-573.229 -4.00802 0
-571.582 -4.03257 0
-569.937 -4.05635 0
-568.286 -4.07762 0
-566.641 -4.10023 0
-564.995 -4.12372 0
-563.348 -4.14438 0
-561.701 -4.16099 0
-560.053 -4.18019 0
-558.404 -4.19599 0
-556.757 -4.21031 0
-555.113 -4.22309 0
-553.465 -4.23499 0
-551.817 -4.24658 0
-550.171 -4.25875 0
-548.522 -4.26895 0
-546.875 -4.27462 0
-545.226 -4.28219 0
-543.579 -4.28742 0
-541.931 -4.29818 0
-540.282 -4.30239 0
-538.635 -4.30229 0
-536.985 -4.30343 0
-535.339 -4.3034 0
-533.692 -4.30769 0
-532.044 -4.31169 0
-530.397 -4.31245 0
-528.749 -4.31487 0
-527.099 -4.30823 0
-525.454 -4.30275 0
-523.805 -4.29496 0
-522.157 -4.29082 0
-520.509 -4.28764 0
-518.859 -4.28146 0
-517.21 -4.27523 0
-515.563 -4.26693 0
-513.914 -4.26132 0
-512.266 -4.25005 0
-510.616 -4.24241 0
-508.966 -4.23446 0
-507.317 -4.223 0
-505.664 -4.2113 0
-504.013 -4.19843 0
-502.366 -4.18595 0
-500.717 -4.17183 0
-499.063 -4.15973 0
-497.412 -4.15197 0
-495.764 -4.13853 0
-494.113 -4.11968 0
-492.46 -4.10855 0
-490.809 -4.09161 0
-489.157 -4.07821 0
-487.507 -4.06212 0
-485.854 -4.05006 0
-484.203 -4.03462 0
-482.553 -4.01654 0
-480.902 -4.00145 0
-479.251 -3.984 0
-477.601 -3.96587 0
-475.949 -3.95105 0
-474.296 -3.93398 0
-472.644 -3.91733 0
-470.991 -3.90248 0
-469.337 -3.88384 0
-467.683 -3.86618 0
-466.027 -3.84986 0
-464.374 -3.83473 0
-462.72 -3.81571 0
-461.069 -3.80481 0
-459.419 -3.7893 0
-457.768 -3.77163 0
-456.114 -3.75106 0
-454.461 -3.73285 0
-452.809 -3.71804 0
-451.157 -3.70185 0
-449.503 -3.68384 0
-447.849 -3.66862 0
-446.196 -3.65374 0
-444.542 -3.63365 0
-442.892 -3.61986 0
-441.237 -3.6078 0
-439.583 -3.59284 0
-437.925 -3.57685 0
-436.272 -3.56477 0
-434.618 -3.54779 0
-432.964 -3.52965 0
-431.31 -3.51545 0
-429.657 -3.50072 0
-428.004 -3.49173 0
-426.347 -3.47837 0
-424.694 -3.4621 0
-423.036 -3.45176 0
-421.379 -3.44072 0
-419.725 -3.42672 0
-418.07 -3.41277 0
-416.415 -3.3984 0
-414.762 -3.38749 0
-413.11 -3.37709 0
-411.454 -3.36821 0
-409.798 -3.35293 0
-408.143 -3.34368 0
-406.49 -3.33651 0
-404.832 -3.32865 0
-403.18 -3.31955 0
-401.528 -3.30718 0
-399.876 -3.30014 0
-398.22 -3.29409 0
-396.561 -3.28605 0
-394.91 -3.27749 0
-393.257 -3.27428 0
-391.602 -3.26235 0
-389.948 -3.2532 0
-388.293 -3.24313 0
-386.637 -3.24365 0
-384.985 -3.23842 0
-383.333 -3.22869 0
-381.677 -3.22977 0
-380.022 -3.22222 0
-378.365 -3.21654 0
-376.711 -3.20781 0
-375.051 -3.20477 0
-373.399 -3.20099 0
-371.742 -3.195 0
-370.089 -3.195 0
-368.434 -3.1927 0
-366.782 -3.19192 0
-365.124 -3.19176 0
-363.471 -3.18732 0
-361.817 -3.1865 0
-360.164 -3.18644 0
-358.51 -3.18594 0
-356.856 -3.1881 0
-355.204 -3.18722 0
-353.551 -3.18652 0
-351.896 -3.18376 0
-350.24 -3.1862 0
-348.586 -3.18141 0
-346.927 -3.18274 0
-345.279 -3.18641 0
-343.623 -3.18711 0
-341.967 -3.18892 0
-340.315 -3.19101 0
-338.663 -3.19087 0
-337.01 -3.19089 0
-335.355 -3.19321 0
-333.702 -3.19379 0
-332.046 -3.1995 0
-330.396 -3.20225 0
-328.738 -3.20237 0
-327.087 -3.21061 0
-325.438 -3.21062 0
-323.786 -3.21743 0
-322.133 -3.22119 0
-320.476 -3.221 0
-318.822 -3.22397 0
-317.172 -3.22468 0
-315.514 -3.22763 0
-313.863 -3.2325 0
-312.211 -3.23649 0
-310.558 -3.23931 0
-308.909 -3.24148 0
-307.255 -3.24631 0
-305.6 -3.24819 0
-303.946 -3.25441 0
-302.293 -3.25577 0
-300.642 -3.26206 0
-298.989 -3.26606 0
-297.338 -3.27212 0
-295.685 -3.27603 0
-294.036 -3.28727 0
-292.383 -3.2884 0
-290.729 -3.2925 0
-289.076 -3.29986 0
-287.419 -3.30206 0
-285.761 -3.30827 0
-284.113 -3.3138 0
-282.461 -3.31888 0
-280.81 -3.32135 0
-279.16 -3.31963 0
-277.512 -3.32595 0
-275.858 -3.33437 0
-274.21 -3.33474 0
-272.553 -3.33668 0
-270.902 -3.3384 0
-269.247 -3.33892 0
-267.594 -3.34397 0
-265.941 -3.35371 0
-264.29 -3.35318 0
-262.637 -3.3547 0
-260.987 -3.36095 0
-259.334 -3.36527 0
-257.682 -3.37079 0
-256.029 -3.37263 0
-254.378 -3.37476 0
-252.726 -3.3767 0
-251.075 -3.38383 0
-249.42 -3.3901 0
-247.772 -3.39402 0
-246.113 -3.39535 0
-244.465 -3.39477 0
-242.814 -3.39683 0
-241.161 -3.40263 0
-239.509 -3.40712 0
-237.856 -3.40844 0
-236.202 -3.40938 0
-234.549 -3.41424 0
-232.895 -3.41905 0
-231.25 -3.41527 0
-229.596 -3.41188 0
-227.947 -3.41784 0
-226.294 -3.42373 0
-224.642 -3.41931 0
-222.991 -3.42128 0
-221.338 -3.42509 0
-219.692 -3.42515 0
-218.04 -3.4288 0
-216.385 -3.4268 0
-214.732 -3.42888 0
-213.08 -3.43279 0
-211.425 -3.43782 0
-209.778 -3.43838 0
-208.126 -3.43599 0
-206.475 -3.43821 0
-204.823 -3.43689 0
-203.174 -3.43429 0
-201.521 -3.4303 0
-199.873 -3.43395 0
-198.224 -3.43681 0
-196.567 -3.43402 0
-194.912 -3.43428 0
-193.266 -3.429 0
-191.611 -3.43425 0
-189.959 -3.43072 0
-188.307 -3.43778 0
-186.654 -3.43531 0
-185.003 -3.43709 0
-183.352 -3.43752 0
-181.703 -3.43224 0
-180.054 -3.43194 0
-178.399 -3.42888 0
-176.748 -3.43352 0
-175.094 -3.43202 0
-173.445 -3.43691 0
-171.796 -3.4289 0
-170.145 -3.42722 0
-168.494 -3.4286 0
-166.841 -3.42901 0
-165.189 -3.43246 0
-163.538 -3.42106 0
-161.888 -3.42332 0
-160.236 -3.41649 0
-158.582 -3.41482 0
-156.931 -3.41239 0
-155.272 -3.40864 0
-153.62 -3.40915 0
-151.972 -3.41445 0
-150.319 -3.41169 0
-148.67 -3.4038 0
-147.02 -3.40118 0
-145.367 -3.39463 0
-143.714 -3.39925 0
-142.06 -3.39719 0
-140.404 -3.39542 0
-138.757 -3.39124 0
-137.103 -3.39297 0
-135.45 -3.38536 0
-133.803 -3.38131 0
-132.151 -3.37866 0
-130.496 -3.37404 0
-128.846 -3.37728 0
-127.19 -3.37332 0
-125.54 -3.37411 0
-123.888 -3.36858 0
-122.239 -3.36484 0
-120.588 -3.36346 0
-118.934 -3.36172 0
-117.277 -3.35336 0
-115.626 -3.34875 0
-113.975 -3.35034 0
-112.324 -3.35386 0
-110.675 -3.34737 0
-109.024 -3.34401 0
-107.374 -3.33954 0
-105.721 -3.34504 0
-104.069 -3.33558 0
-102.419 -3.33618 0
-100.768 -3.33367 0
-99.1142 -3.33399 0
-97.4647 -3.33494 0
-95.81 -3.32933 0
-94.1624 -3.32096 0
-92.5121 -3.32529 0
-90.8585 -3.31994 0
-89.2041 -3.32226 0
-87.5554 -3.31581 0
-85.9068 -3.3085 0
-84.2551 -3.30753 0
-82.6042 -3.30858 0
-80.9512 -3.3095 0
-79.2924 -3.30761 0
-77.6457 -3.30129 0
-75.9895 -3.30074 0
-74.3399 -3.29934 0
-72.6896 -3.29483 0
-71.0365 -3.29305 0
-69.3816 -3.29151 0
-67.731 -3.28704 0
-66.0814 -3.29053 0
-64.4262 -3.28103 0
-62.7737 -3.28059 0
-61.1166 -3.28132 0
-59.4666 -3.28175 0
-57.813 -3.2761 0
-56.1598 -3.27659 0
-54.5093 -3.27621 0
-52.8632 -3.2648 0
-51.2116 -3.27106 0
-49.5621 -3.2693 0
-47.9053 -3.26289 0
-46.2534 -3.25811 0
-44.6032 -3.25377 0
-42.9522 -3.2566 0
-41.298 -3.25267 0
-39.6466 -3.25412 0
-37.9888 -3.25265 0
-36.3382 -3.25399 0
-34.6869 -3.25516 0
-33.0369 -3.25268 0
-31.3869 -3.25139 0
-29.7298 -3.24734 0
-28.0769 -3.25071 0
-26.428 -3.24772 0
-24.7801 -3.24546 0
-23.1328 -3.24504 0
-21.4828 -3.24346 0
-19.8246 -3.23794 0
-18.1767 -3.24147 0
-16.5182 -3.24274 0
-14.867 -3.23801 0
-13.2166 -3.24085 0
-11.5618 -3.24015 0
-9.91228 -3.24177 0
-8.25695 -3.23756 0
-6.60396 -3.24226 0
-4.95285 -3.238 0
-3.30047 -3.23399 0
-1.64927 -3.2349 0
0 -3.23738 0
-1112.82 158.7 0
-1112.61 145.88 0
-1112.55 133.4 0
-1112.46 121.135 0
-1112.31 109.119 0
-1112.1 97.4043 0
-1111.81 86.0248 0
-1111.44 75.0659 0
-1111.03 64.5814 0
-1110.58 54.6094 0
-1110.09 45.1836 0
-1109.55 36.3219 0
-1108.96 28.0363 0
-1108.33 20.3382 0
-1107.7 13.199 0
-1107.13 6.5474 0
-1106.61 0.307478 0
-1106.13 -5.54553 0
-1105.63 -11.0537 0
-1105.1 -16.1692 0
-1104.55 -20.893 0
-1103.99 -25.224 0
-1103.41 -29.1605 0
-1102.82 -32.7077 0
-1102.23 -35.8693 0
-1101.63 -38.6554 0
-1101.01 -41.0834 0
-1100.38 -43.1682 0
-1099.75 -44.93 0
-1099.1 -46.3813 0
-1098.42 -47.5469 0
-1097.73 -48.444 0
-1097.01 -49.0936 0
-1096.27 -49.507 0
-1095.49 -49.7077 0
-1094.69 -49.7071 0
-1093.85 -49.5172 0
-1092.98 -49.1606 0
-1092.07 -48.6408 0
-1091.13 -47.9764 0
-1090.16 -47.1809 0
-1089.15 -46.2617 0
-1088.1 -45.2293 0
-1087.03 -44.095 0
-1085.92 -42.8749 0
-1084.77 -41.5753 0
-1083.59 -40.1987 0
-1082.38 -38.762 0
-1081.14 -37.2658 0
-1079.86 -35.7248 0
-1078.56 -34.1465 0
-1077.22 -32.5299 0
-1075.86 -30.8873 0
-1074.47 -29.2255 0
-1073.05 -27.5464 0
-1071.61 -25.8638 0
-1070.14 -24.1722 0
-1068.64 -22.484 0
-1067.13 -20.7958 0
-1065.59 -19.1131 0
-1064.03 -17.4463 0
-1062.45 -15.7986 0
-1060.85 -14.1697 0
-1059.23 -12.5616 0
-1057.6 -10.9774 0
-1055.94 -9.425 0
-1054.27 -7.90277 0
-1052.59 -6.40738 0
-1050.89 -4.94813 0
-1049.18 -3.52654 0
-1047.45 -2.14004 0
-1045.72 -0.792592 0
-1043.97 0.518585 0
-1042.21 1.78137 0
-1040.44 3.00875 0
-1038.66 4.18818 0
-1036.88 5.32384 0
-1035.09 6.41443 0
-1033.29 7.46107 0
-1031.48 8.46324 0
-1029.67 9.41965 0
-1027.85 10.3285 0
-1026.03 11.192 0
-1024.2 12.0069 0
-1022.37 12.7777 0
-1020.54 13.5027 0
-1018.7 14.182 0
-1016.86 14.8144 0
-1015.03 15.4035 0
-1013.19 15.9463 0
-1011.35 16.4457 0
-1009.5 16.9023 0
-1007.66 17.3148 0
-1005.82 17.6838 0
-1003.98 18.0133 0
-1002.15 18.298 0
-1000.31 18.5446 0
-998.473 18.753 0
-996.641 18.9215 0
-994.809 19.0506 0
-992.979 19.1466 0
-991.153 19.2057 0
-989.333 19.2287 0
-987.513 19.2163 0
-985.699 19.1709 0
-983.889 19.0946 0
-982.082 18.9865 0