<?xml version="1.0"?>
<VTKFile type="StructuredGrid"  version="0.1" byte_order="LittleEndian" compressor="vtkZLibDataCompressor">
  <StructuredGrid WholeExtent="0 700 0 30 0 0">
    <Piece Extent="0 700 0 30 0 0">
      <PointData Vectors="Velocity">
        <DataArray type="Float32" Name="Velocity" NumberOfComponents="3" format="ascii">
-1040.88 80.226 0
-1041.39 71.3808 0
-1041.95 62.6692 0
-1042.52 54.1693 0
-1043.13 45.9411 0
-1043.78 38.0673 0
-1044.47 30.6234 0
-1045.16 23.6566 0
-1045.85 17.1933 0
-1046.5 11.2489 0
-1047.12 5.84476 0
-1047.67 1.00046 0
-1048.13 -3.28866 0
-1048.46 -7.11754 0
-1048.62 -10.6782 0
-1048.88 -14.0033 0
-1049.14 -16.9902 0
-1049.38 -19.5993 0
-1049.59 -21.8354 0
-1049.76 -23.7083 0
-1049.9 -25.2306 0
-1049.97 -26.4265 0
-1049.99 -27.3223 0
-1049.93 -27.9427 0
-1049.8 -28.3178 0
-1049.59 -28.4767 0
-1049.29 -28.4431 0
-1048.91 -28.2366 0
-1048.46 -27.8786 0
-1047.92 -27.3864 0
-1047.31 -26.7792 0
-1046.62 -26.0719 0
-1045.87 -25.2769 0
-1045.05 -24.4089 0
-1044.16 -23.4795 0
-1043.21 -22.4994 0
-1042.19 -21.4791 0
-1041.12 -20.4294 0
-1040 -19.3574 0
-1038.82 -18.2706 0
-1037.6 -17.1766 0
-1036.33 -16.0841 0
-1035.01 -14.9963 0
-1033.66 -13.9192 0
-1032.27 -12.8559 0
-1030.84 -11.8149 0
-1029.38 -10.7955 0
-1027.89 -9.80332 0
-1026.37 -8.84103 0
-1024.82 -7.9108 0
-1023.25 -7.01533 0
-1021.66 -6.15768 0
-1020.04 -5.33588 0
-1018.41 -4.55422 0
-1016.77 -3.81027 0
-1015.1 -3.10945 0
-1013.42 -2.44939 0
-1011.73 -1.83266 0
-1010.03 -1.25653 0
-1008.32 -0.721048 0
-1006.6 -0.228059 0
-1004.87 0.224201 0
-1003.14 0.635402 0
-1001.4 1.00569 0
-999.664 1.3371 0
-997.922 1.6284 0
-996.177 1.88372 0
-994.431 2.10295 0
-992.686 2.28585 0
-990.94 2.43304 0
-989.198 2.5483 0
-987.455 2.63081 0
-985.716 2.68182 0
-983.98 2.70477 0
-982.249 2.69925 0
-980.521 2.66626 0
-978.798 2.60794 0
-977.08 2.52465 0
-975.367 2.41944 0
-973.659 2.29367 0
-971.958 2.14791 0
-970.263 1.98396 0
-968.575 1.80317 0
-966.893 1.60466 0
-965.219 1.39351 0
-963.552 1.16853 0
-961.89 0.934122 0
-960.236 0.687189 0
-958.589 0.432655 0
-956.95 0.168869 0
-955.316 -0.100297 0
-953.69 -0.374259 0
-952.07 -0.651815 0
-950.458 -0.934034 0
-948.85 -1.21722 0
-947.251 -1.50185 0
-945.657 -1.7854 0
-944.069 -2.06814 0
-942.487 -2.34898 0
-940.909 -2.62683 0
-939.337 -2.90218 0
-937.773 -3.17293 0
-936.212 -3.4362 0
-934.655 -3.69583 0
-933.104 -3.94943 0
-931.555 -4.19584 0
-930.01 -4.43338 0
-928.47 -4.66519 0
-926.931 -4.88845 0
-925.398 -5.10198 0
-923.866 -5.30604 0
-922.337 -5.50286 0
-920.811 -5.68822 0
-919.288 -5.86599 0
-917.766 -6.02971 0
-916.246 -6.18538 0
-914.728 -6.33018 0
-913.208 -6.4634 0
-911.691 -6.59075 0
-910.176 -6.70617 0
-908.66 -6.81224 0
-907.145 -6.90358 0
-905.63 -6.98892 0
-904.114 -7.06137 0
-902.596 -7.12511 0
-901.08 -7.17953 0
-899.563 -7.22731 0
-898.045 -7.26485 0
-896.526 -7.29166 0
-895.007 -7.31028 0
-893.486 -7.32077 0
-891.966 -7.32421 0
-890.442 -7.32148 0
-888.918 -7.30685 0
-887.392 -7.28883 0
-885.865 -7.26174 0
-884.335 -7.23108 0
-882.806 -7.19306 0
-881.274 -7.15039 0
-879.741 -7.09809 0
-878.203 -7.04441 0
-876.666 -6.98439 0
-875.126 -6.92217 0
-873.585 -6.85142 0
-872.041 -6.78161 0
-870.496 -6.70669 0
-868.949 -6.62913 0
-867.4 -6.54974 0
-865.85 -6.46655 0
-864.299 -6.38248 0
-862.748 -6.29586 0
-861.193 -6.20855 0
-859.634 -6.11975 0
-858.076 -6.02903 0
-856.513 -5.93999 0
-854.952 -5.85012 0
-853.389 -5.7594 0
-851.822 -5.66763 0
-850.255 -5.5781 0
-848.687 -5.49095 0
-847.117 -5.40043 0
-845.546 -5.31424 0
-843.973 -5.22778 0
-842.401 -5.14325 0
-840.826 -5.06042 0
-839.251 -4.98073 0
-837.674 -4.9009 0
-836.097 -4.8259 0
-834.52 -4.7528 0
-832.941 -4.67884 0
-831.361 -4.60874 0
-829.782 -4.54021 0
-828.201 -4.47609 0
-826.619 -4.41278 0
-825.038 -4.35314 0
-823.456 -4.29513 0
-821.872 -4.24214 0
-820.288 -4.19197 0
-818.701 -4.14208 0
-817.118 -4.09836 0
-815.534 -4.05539 0
-813.95 -4.01577 0
-812.366 -3.97953 0
-810.782 -3.94627 0
-809.194 -3.9156 0
-807.609 -3.88713 0
-806.025 -3.86258 0
-804.438 -3.83913 0
-802.854 -3.82117 0
-801.269 -3.80431 0
-799.685 -3.78684 0
-798.103 -3.77721 0
-796.519 -3.76908 0
-794.936 -3.76135 0
-793.352 -3.75695 0
-791.77 -3.75672 0
-790.187 -3.75829 0
-788.606 -3.75975 0
-787.024 -3.76306 0
-785.441 -3.77141 0
-783.859 -3.77838 0
-782.28 -3.79069 0
-780.702 -3.80436 0
-779.122 -3.81741 0
-777.542 -3.83295 0
-775.966 -3.8498 0
-774.387 -3.86887 0
-772.81 -3.89104 0
-771.234 -3.90869 0
-769.656 -3.93233 0
-768.082 -3.95551 0
-766.507 -3.97766 0
-764.932 -4.00015 0
-763.356 -4.02623 0
-761.783 -4.05405 0
-760.21 -4.08179 0
-758.637 -4.11038 0
-757.066 -4.13701 0
-755.494 -4.16174 0
-753.921 -4.19315 0
-752.352 -4.22175 0
-750.781 -4.2495 0
-749.212 -4.28033 0
-747.642 -4.31043 0
-746.073 -4.33463 0
-744.503 -4.36523 0
-742.933 -4.39317 0
-741.364 -4.42083 0
-739.795 -4.44894 0
-738.23 -4.47399 0
-736.664 -4.50002 0
-735.096 -4.52494 0
-733.529 -4.5526 0
-731.964 -4.5773 0
-730.399 -4.60262 0
-728.835 -4.62722 0
-727.268 -4.65217 0
-725.7 -4.67665 0
-724.137 -4.69396 0
-722.574 -4.71514 0
-721.009 -4.73534 0
-719.446 -4.75483 0
-717.881 -4.77386 0
-716.316 -4.79561 0
-714.752 -4.8098 0
-713.188 -4.82375 0
-711.625 -4.83538 0
-710.061 -4.85107 0
-708.496 -4.86524 0
-706.934 -4.88327 0
-705.374 -4.89473 0
-703.81 -4.90137 0
-702.246 -4.91371 0
-700.684 -4.92401 0
-699.122 -4.9286 0
-697.559 -4.93336 0
-695.997 -4.94231 0
-694.433 -4.94603 0
-692.871 -4.95381 0
-691.307 -4.95545 0
-689.743 -4.96059 0
-688.175 -4.96281 0
-686.616 -4.96484 0
-685.052 -4.96714 0
-683.489 -4.96694 0
-681.924 -4.96348 0
-680.358 -4.96328 0
-678.794 -4.95993 0
-677.229 -4.9555 0
-675.666 -4.95342 0
-674.101 -4.95283 0
-672.535 -4.94933 0
-670.971 -4.94384 0
-669.406 -4.94053 0
-667.842 -4.93394 0
-666.275 -4.92971 0
-664.709 -4.92563 0
-663.144 -4.91684 0
-661.575 -4.90775 0
-660.01 -4.90191 0
-658.445 -4.89195 0
-656.879 -4.88335 0
-655.313 -4.87617 0
-653.746 -4.86499 0
-652.179 -4.85461 0
-650.61 -4.84948 0
-649.044 -4.83868 0
-647.477 -4.83107 0
-645.91 -4.81997 0
-644.341 -4.81013 0
-642.774 -4.79899 0
-641.209 -4.78771 0
-639.642 -4.78014 0
-638.074 -4.77119 0
-636.502 -4.76109 0
-634.933 -4.75631 0
-633.364 -4.7425 0
-631.797 -4.73884 0
-630.23 -4.72585 0
-628.661 -4.71704 0
-627.095 -4.7068 0
-625.526 -4.69782 0
-623.955 -4.68952 0
-622.386 -4.68131 0
-620.821 -4.67038 0
-619.251 -4.6595 0
-617.682 -4.65244 0
-616.112 -4.64411 0
-614.544 -4.63792 0
-612.976 -4.63156 0
-611.406 -4.62728 0
-609.834 -4.61667 0
-608.264 -4.60931 0
-606.694 -4.60483 0
-605.124 -4.59771 0
-603.554 -4.59159 0
-601.984 -4.58551 0
-600.415 -4.57559 0
-598.842 -4.57174 0
-597.273 -4.57041 0
-595.703 -4.56223 0
-594.137 -4.55915 0
-592.566 -4.55523 0
-590.996 -4.55096 0
-589.422 -4.54624 0
-587.854 -4.54247 0
-586.285 -4.54077 0
-584.715 -4.53593 0
-583.146 -4.53385 0
-581.574 -4.52594 0
-580.003 -4.52813 0
-578.434 -4.52676 0
-576.865 -4.52517 0
-575.296 -4.5243 0
-573.727 -4.5241 0
-572.16 -4.5222 0
-570.593 -4.52032 0
-569.022 -4.51803 0
-567.45 -4.51758 0
-565.879 -4.52025 0
-564.308 -4.52249 0
-562.739 -4.52296 0
-561.167 -4.51997 0
-559.599 -4.52571 0
-558.032 -4.52413 0
-556.462 -4.52161 0
-554.896 -4.52265 0
-553.324 -4.52769 0
-551.755 -4.52615 0
-550.184 -4.52601 0
-548.611 -4.5321 0
-547.043 -4.53282 0
-545.473 -4.53484 0
-543.906 -4.53842 0
-542.337 -4.54373 0
-540.767 -4.54686 0
-539.2 -4.54955 0
-537.634 -4.55669 0
-536.065 -4.5542 0
-534.497 -4.5594 0
-532.929 -4.55668 0
-531.357 -4.56095 0
-529.789 -4.56341 0
-528.223 -4.56886 0
-526.653 -4.57215 0
-525.085 -4.57403 0
-523.518 -4.58079 0
-521.947 -4.58251 0
-520.38 -4.58638 0
-518.815 -4.59459 0
-517.244 -4.59273 0
-515.678 -4.59372 0
-514.109 -4.59301 0
-512.542 -4.59771 0
-510.977 -4.59886 0
-509.407 -4.60594 0
-507.838 -4.61024 0
-506.269 -4.61347 0
-504.701 -4.61524 0
-503.133 -4.62063 0
-501.565 -4.62465 0
-499.999 -4.6244 0
-498.433 -4.62455 0
-496.865 -4.62931 0
-495.298 -4.62998 0
-493.731 -4.63721 0
-492.161 -4.63813 0
-490.591 -4.64468 0
-489.023 -4.64274 0
-487.457 -4.64643 0
-485.889 -4.65284 0
-484.323 -4.64934 0
-482.753 -4.65162 0
-481.186 -4.65102 0
-479.622 -4.65509 0
-478.053 -4.66024 0
-476.485 -4.66211 0
-474.917 -4.66203 0
-473.35 -4.66507 0
-471.784 -4.66029 0
-470.217 -4.66437 0
-468.648 -4.66586 0
-467.082 -4.66817 0
-465.51 -4.66659 0
-463.947 -4.67109 0
-462.381 -4.67223 0
-460.814 -4.66993 0
-459.238 -4.66717 0
-457.673 -4.67074 0
-456.108 -4.67217 0
-454.543 -4.67025 0
-452.974 -4.66742 0
-451.404 -4.67224 0
-449.836 -4.67118 0
-448.269 -4.67304 0
-446.699 -4.67384 0
-445.138 -4.67423 0
-443.573 -4.67474 0
-442.003 -4.67488 0
-440.439 -4.67189 0
-438.866 -4.67655 0
-437.299 -4.67536 0
-435.733 -4.67645 0
-434.167 -4.67029 0
-432.6 -4.67287 0
-431.028 -4.66556 0
-429.458 -4.6708 0
-427.888 -4.66906 0
-426.32 -4.66705 0
-424.756 -4.67088 0
-423.188 -4.66764 0
-421.621 -4.66566 0
-420.054 -4.66688 0
-418.485 -4.66517 0
-416.917 -4.66528 0
-415.35 -4.66213 0
-413.779 -4.66262 0
-412.209 -4.66257 0
-410.646 -4.66401 0
-409.084 -4.66016 0
-407.516 -4.66477 0
-405.946 -4.65921 0
-404.381 -4.66134 0
-402.813 -4.65291 0
-401.246 -4.65388 0
-399.677 -4.65504 0
-398.107 -4.65244 0
-396.54 -4.65547 0
-394.972 -4.64832 0
-393.404 -4.65109 0
-391.837 -4.64706 0
-390.268 -4.64094 0
-388.702 -4.63799 0
-387.134 -4.63662 0
-385.565 -4.64133 0
-383.995 -4.63291 0
-382.426 -4.6429 0
-380.858 -4.64156 0
-379.293 -4.63954 0
-377.723 -4.63784 0
-376.156 -4.63862 0
-374.587 -4.63929 0
-373.019 -4.63144 0
-371.453 -4.62836 0
-369.882 -4.63307 0
-368.313 -4.63488 0
-366.745 -4.63626 0
-365.179 -4.63009 0
-363.609 -4.63441 0
-362.046 -4.62867 0
-360.477 -4.6349 0
-358.909 -4.62839 0
-357.342 -4.6256 0
-355.77 -4.62355 0
-354.201 -4.63077 0
-352.635 -4.62615 0
-351.067 -4.61964 0
-349.501 -4.62362 0
-347.933 -4.61793 0
-346.367 -4.61818 0
-344.795 -4.62021 0
-343.227 -4.62162 0
-341.66 -4.61637 0
-340.096 -4.61961 0
-338.527 -4.61622 0
-336.959 -4.61099 0
-335.389 -4.6129 0
-333.823 -4.61269 0
-332.25 -4.6172 0
-330.682 -4.61804 0
-329.116 -4.6154 0
-327.545 -4.61519 0
-325.977 -4.61246 0
-324.403 -4.61926 0
-322.84 -4.61311 0
-321.273 -4.61346 0
-319.706 -4.61212 0
-318.142 -4.61156 0
-316.571 -4.61239 0
-315.002 -4.61752 0
-313.439 -4.61574 0
-311.87 -4.61079 0
-310.303 -4.61223 0
-308.731 -4.61547 0
-307.164 -4.61606 0
-305.6 -4.61748 0
-304.034 -4.61311 0
-302.465 -4.61192 0
-300.899 -4.60929 0
-299.331 -4.61099 0
-297.764 -4.61628 0
-296.195 -4.61576 0
-294.625 -4.61957 0
-293.059 -4.61385 0
-291.494 -4.61809 0
-289.925 -4.62124 0
-288.355 -4.61739 0
-286.787 -4.62024 0
-285.216 -4.61978 0
-283.649 -4.62028 0
-282.081 -4.62215 0
-280.512 -4.62664 0
-278.95 -4.62422 0
-277.384 -4.61841 0
-275.814 -4.61925 0
-274.25 -4.62309 0
-272.673 -4.62124 0
-271.11 -4.62266 0
-269.537 -4.6281 0
-267.973 -4.62135 0
-266.404 -4.62016 0
-264.837 -4.61849 0
-263.269 -4.62116 0
-261.703 -4.61914 0
-260.135 -4.62025 0
-258.57 -4.61987 0
-256.999 -4.61736 0
-255.43 -4.61823 0
-253.863 -4.62176 0
-252.294 -4.61962 0
-250.728 -4.62654 0
-249.163 -4.62654 0
-247.594 -4.62429 0
-246.028 -4.62383 0
-244.455 -4.62409 0
-242.888 -4.62717 0
-241.322 -4.62713 0
-239.753 -4.62545 0
-238.188 -4.62619 0
-236.62 -4.62647 0
-235.055 -4.62466 0
-233.485 -4.62204 0
-231.918 -4.62093 0
-230.353 -4.62564 0
-228.784 -4.62182 0
-227.216 -4.6226 0
-225.65 -4.62754 0
-224.078 -4.62451 0
-222.515 -4.62434 0
-220.949 -4.62722 0
-219.379 -4.62794 0
-217.817 -4.62964 0
-216.248 -4.62704 0
-214.681 -4.62745 0
-213.114 -4.62855 0
-211.548 -4.63196 0
-209.984 -4.62672 0
-208.42 -4.62728 0
-206.847 -4.62524 0
-205.279 -4.62689 0
-203.712 -4.62409 0
-202.145 -4.627 0
-200.575 -4.62751 0
-199.008 -4.63103 0
-197.439 -4.63121 0
-195.875 -4.6283 0
-194.308 -4.62578 0
-192.741 -4.62691 0
-191.169 -4.63338 0
-189.603 -4.6367 0
-188.037 -4.63186 0
-186.473 -4.62841 0
-184.904 -4.62253 0
-183.338 -4.62881 0
-181.771 -4.6289 0
-180.202 -4.6248 0
-178.638 -4.62692 0
-177.071 -4.63102 0
-175.503 -4.62976 0
-173.933 -4.63064 0
-172.367 -4.6317 0
-170.799 -4.63093 0
-169.232 -4.6321 0
-167.668 -4.6333 0
-166.104 -4.63112 0
-164.539 -4.63317 0
-162.971 -4.63152 0
-161.403 -4.63085 0
-159.833 -4.62992 0
-158.265 -4.62616 0
-156.696 -4.62909 0
-155.131 -4.63065 0
-153.566 -4.6305 0
-151.999 -4.6314 0
-150.429 -4.63102 0
-148.865 -4.62553 0
-147.296 -4.62838 0
-145.729 -4.62899 0
-144.163 -4.62968 0
-142.593 -4.63188 0
-141.027 -4.62989 0
-139.458 -4.63125 0
-137.893 -4.63041 0
-136.326 -4.6293 0
-134.758 -4.6331 0
-133.191 -4.63022 0
-131.623 -4.63263 0
-130.054 -4.63273 0
-128.487 -4.63366 0
-126.921 -4.63599 0
-125.352 -4.63124 0
-123.788 -4.62527 0
-122.221 -4.62878 0
-120.658 -4.63093 0
-119.091 -4.62975 0
-117.527 -4.62749 0
-115.961 -4.62651 0
-114.391 -4.62576 0
-112.817 -4.62625 0
-111.252 -4.62735 0
-109.684 -4.62616 0
-108.118 -4.62641 0
-106.549 -4.62568 0
-104.982 -4.62768 0
-103.417 -4.62839 0
-101.848 -4.63323 0
-100.281 -4.63468 0
-98.7148 -4.63508 0
-97.1505 -4.6307 0
-95.5796 -4.62998 0
-94.0069 -4.62565 0
-92.4427 -4.63023 0
-90.8794 -4.63198 0
-89.3115 -4.63246 0
-87.7456 -4.62911 0
-86.1777 -4.62953 0
-84.6106 -4.63071 0
-83.0521 -4.62818 0
-81.4822 -4.63072 0
-79.9135 -4.62818 0
-78.3441 -4.62701 0
-76.7821 -4.63033 0
-75.2167 -4.62574 0
-73.6467 -4.62656 0
-72.0791 -4.63257 0
-70.513 -4.63004 0
-68.9479 -4.63221 0
-67.3837 -4.62982 0
-65.8145 -4.6267 0
-64.2484 -4.62641 0
-62.6772 -4.62723 0
-61.1141 -4.62931 0
-59.5445 -4.62037 0
-57.9732 -4.62427 0
-56.4081 -4.62554 0
-54.8391 -4.6229 0
-53.2709 -4.62204 0
-51.7026 -4.62008 0
-50.1353 -4.62266 0
-48.5715 -4.61549 0
-47.0105 -4.6212 0
-45.4432 -4.61984 0
-43.8746 -4.626 0
-42.3092 -4.62466 0
-40.7394 -4.61879 0
-39.1752 -4.62744 0
-37.6118 -4.62919 0
-36.0407 -4.62198 0
-34.4736 -4.62276 0
-32.9065 -4.62024 0
-31.3435 -4.62268 0
-29.7776 -4.62172 0
-28.2138 -4.6222 0
-26.6473 -4.61762 0
-25.0795 -4.61554 0
-23.51 -4.61902 0
-21.9456 -4.6224 0
-20.3769 -4.61887 0
-18.8072 -4.62555 0
-17.2389 -4.62401 0
-15.6716 -4.6204 0
-14.1032 -4.62093 0
-12.5304 -4.62247 0
-10.9676 -4.62703 0
-9.4013 -4.62599 0
-7.83522 -4.62257 0
-6.265 -4.61423 0
-4.69845 -4.61824 0
-3.13371 -4.61809 0
-1.56439 -4.62033 0
0 -4.61382 0
-1049.72 80.7659 0
-1050.12 71.8641 0
-1050.52 63.1155 0
-1050.89 54.5852 0
-1051.22 46.313 0
-1051.5 38.3769 0
-1051.73 30.8667 0
-1051.93 23.8415 0
-1052.08 17.3328 0
-1052.19 11.3608 0
-1052.23 5.9433 0
-1052.2 1.09828 0
-1052.13 -3.18688 0
-1052.09 -7.00921 0
-1052.14 -10.5768 0
-1052.09 -13.9156 0
-1051.99 -16.9103 0
-1051.86 -19.5231 0
-1051.7 -21.7577 0
-1051.52 -23.6195 0
-1051.32 -25.1209 0
-1051.08 -26.2854 0
-1050.8 -27.1377 0
-1050.47 -27.7079 0
-1050.1 -28.0246 0
-1049.68 -28.1192 0
-1049.19 -28.0202 0
-1048.65 -27.7465 0
-1048.05 -27.3213 0
-1047.39 -26.7622 0
-1046.67 -26.0884 0
-1045.89 -25.3162 0
-1045.05 -24.4589 0
-1044.16 -23.5296 0
-1043.22 -22.5408 0
-1042.22 -21.5049 0
-1041.17 -20.4295 0
-1040.08 -19.3284 0
-1038.94 -18.207 0
-1037.75 -17.0738 0
-1036.53 -15.9359 0
-1035.26 -14.8009 0
-1033.95 -13.6754 0
-1032.61 -12.5604 0
-1031.24 -11.4638 0
-1029.84 -10.3905 0
-1028.4 -9.34095 0
-1026.94 -8.32055 0
-1025.45 -7.33307 0
-1023.93 -6.3798 0
-1022.4 -5.46389 0
-1020.84 -4.58522 0
-1019.27 -3.74622 0
-1017.67 -2.94743 0
-1016.07 -2.18957 0
-1014.44 -1.47417 0
-1012.81 -0.802371 0
-1011.16 -0.174427 0
-1009.49 0.411479 0
-1007.82 0.952936 0
-1006.15 1.45409 0
-1004.46 1.91253 0
-1002.77 2.328 0
-1001.07 2.70225 0
-999.368 3.03657 0
-997.663 3.33021 0
-995.955 3.58634 0
-994.244 3.80641 0
-992.533 3.98977 0
-990.821 4.13563 0
-989.108 4.24886 0
-987.397 4.33027 0
-985.688 4.37867 0
-983.98 4.3986 0
-982.274 4.38882 0
-980.571 4.35221 0
-978.872 4.28916 0
-977.177 4.2013 0
-975.486 4.09137 0
-973.798 3.96071 0
-972.115 3.80896 0
-970.437 3.63902 0
-968.765 3.45206 0
-967.098 3.24867 0
-965.437 3.03086 0
-963.78 2.80099 0
-962.13 2.55921 0
-960.485 2.30621 0
-958.846 2.0453 0
-957.213 1.77623 0
-955.584 1.50177 0
-953.962 1.22083 0
-952.346 0.936757 0
-950.735 0.649296 0
-949.131 0.359421 0
-947.531 0.0698428 0
-945.936 -0.218955 0
-944.346 -0.507541 0
-942.762 -0.792129 0
-941.182 -1.07603 0
-939.607 -1.35617 0
-938.035 -1.63046 0
-936.468 -1.89927 0
-934.907 -2.16284 0
-933.348 -2.41975 0
-931.792 -2.67006 0
-930.24 -2.91197 0
-928.692 -3.14578 0
-927.146 -3.37122 0
-925.602 -3.5876 0
-924.062 -3.79572 0
-922.524 -3.9937 0
-920.989 -4.18229 0
-919.456 -4.36083 0
-917.923 -4.52599 0
-916.393 -4.68424 0
-914.864 -4.82983 0
-913.336 -4.96466 0
-911.809 -5.09218 0
-910.282 -5.20783 0
-908.756 -5.31186 0
-907.229 -5.40634 0
-905.704 -5.49075 0
-904.18 -5.56251 0
-902.655 -5.62726 0
-901.129 -5.68214 0
-899.602 -5.72694 0
-898.075 -5.76461 0
-896.55 -5.79194 0
-895.021 -5.80922 0
-893.492 -5.81903 0
-891.964 -5.82123 0
-890.434 -5.81527 0
-888.902 -5.80146 0
-887.369 -5.78089 0
-885.835 -5.75437 0
-884.3 -5.72125 0
-882.765 -5.68195 0
-881.228 -5.63524 0
-879.688 -5.58326 0
-878.147 -5.5276 0
-876.605 -5.46663 0
-875.062 -5.40082 0
-873.516 -5.33142 0
-871.97 -5.25889 0
-870.422 -5.18191 0
-868.872 -5.1036 0
-867.322 -5.02164 0
-865.769 -4.93668 0
-864.216 -4.85137 0
-862.661 -4.76269 0
-861.105 -4.67415 0
-859.547 -4.58418 0
-857.987 -4.49182 0
-856.426 -4.40131 0
-854.863 -4.31055 0
-853.3 -4.21766 0
-851.734 -4.12491 0
-850.168 -4.0344 0
-848.6 -3.94391 0
-847.031 -3.85448 0
-845.462 -3.76666 0
-843.891 -3.67855 0
-842.319 -3.59315 0
-840.747 -3.50923 0
-839.173 -3.42904 0
-837.598 -3.34795 0
-836.024 -3.27262 0
-834.449 -3.19832 0
-832.871 -3.1241 0
-831.295 -3.05164 0
-829.716 -2.98401 0
-828.137 -2.91738 0
-826.558 -2.85524 0
-824.979 -2.796 0
-823.4 -2.73737 0
-821.819 -2.68274 0
-820.238 -2.63136 0
-818.657 -2.58219 0
-817.075 -2.53814 0
-815.494 -2.4948 0
-813.914 -2.45583 0
-812.333 -2.41946 0
-810.749 -2.3843 0
-809.165 -2.35531 0
-807.583 -2.32793 0
-806.002 -2.30167 0
-804.42 -2.27878 0
-802.837 -2.26063 0
-801.253 -2.24412 0
-799.674 -2.2301 0
-798.093 -2.21847 0
-796.511 -2.2081 0
-794.93 -2.20205 0
-793.349 -2.2005 0
-791.769 -2.19839 0
-790.189 -2.19971 0
-788.609 -2.20227 0
-787.029 -2.20638 0
-785.449 -2.21245 0
-783.87 -2.22022 0
-782.292 -2.23297 0
-780.714 -2.24727 0
-779.138 -2.26269 0
-777.561 -2.27932 0
-775.983 -2.29508 0
-774.407 -2.31439 0
-772.829 -2.3348 0
-771.253 -2.35599 0
-769.68 -2.37989 0
-768.105 -2.40193 0
-766.531 -2.42472 0
-764.956 -2.45003 0
-763.384 -2.4761 0
-761.81 -2.50294 0
-760.237 -2.53129 0
-758.664 -2.55907 0
-757.092 -2.58772 0
-755.521 -2.61693 0
-753.95 -2.64556 0
-752.378 -2.67327 0
-750.807 -2.70298 0
-749.238 -2.73325 0
-747.668 -2.76331 0
-746.099 -2.78899 0
-744.531 -2.81789 0
-742.96 -2.84764 0
-741.394 -2.87554 0
-739.825 -2.90338 0
-738.256 -2.92989 0
-736.688 -2.95356 0
-735.122 -2.98322 0
-733.556 -3.00852 0
-731.989 -3.03345 0
-730.423 -3.0601 0
-728.855 -3.0855 0
-727.291 -3.10883 0
-725.725 -3.13301 0
-724.16 -3.151 0
-722.593 -3.17308 0
-721.029 -3.19374 0
-719.464 -3.21344 0
-717.899 -3.23097 0
-716.333 -3.25143 0
-714.767 -3.26698 0
-713.201 -3.28258 0
-711.637 -3.29782 0
-710.074 -3.31089 0
-708.51 -3.32548 0
-706.946 -3.34152 0
-705.385 -3.35273 0
-703.82 -3.36086 0
-702.255 -3.37089 0
-700.691 -3.38391 0
-699.127 -3.38914 0
-697.565 -3.39434 0
-696.002 -3.40251 0
-694.437 -3.40565 0
-692.874 -3.41155 0
-691.31 -3.41517 0
-689.746 -3.41922 0
-688.183 -3.42168 0
-686.618 -3.4235 0
-685.054 -3.42438 0
-683.487 -3.42471 0
-681.922 -3.4227 0
-680.357 -3.42254 0
-678.791 -3.41712 0
-677.226 -3.41525 0
-675.663 -3.41316 0
-674.098 -3.41062 0
-672.531 -3.40579 0
-670.967 -3.40293 0
-669.403 -3.3981 0
-667.837 -3.39027 0
-666.271 -3.38461 0
-664.702 -3.37866 0
-663.135 -3.37295 0
-661.568 -3.36676 0
-660.002 -3.35955 0
-658.436 -3.3489 0
-656.872 -3.34039 0
-655.305 -3.33087 0
-653.74 -3.3214 0
-652.172 -3.31269 0
-650.603 -3.30416 0
-649.034 -3.29512 0
-647.467 -3.28549 0
-645.9 -3.27306 0
-644.331 -3.26444 0
-642.766 -3.25478 0
-641.198 -3.24374 0
-639.632 -3.23656 0
-638.064 -3.22361 0
-636.494 -3.21662 0
-634.925 -3.2093 0
-633.358 -3.19722 0
-631.787 -3.19005 0
-630.217 -3.18202 0
-628.651 -3.17148 0
-627.084 -3.16259 0
-625.515 -3.15312 0
-623.947 -3.14576 0
-622.38 -3.13471 0
-620.81 -3.12693 0
-619.242 -3.11544 0
-617.674 -3.10511 0
-616.105 -3.09961 0
-614.536 -3.09205 0
-612.967 -3.08547 0
-611.397 -3.07905 0
-609.827 -3.06959 0
-608.259 -3.06222 0
-606.689 -3.05852 0
-605.118 -3.05264 0
-603.549 -3.04454 0
-601.978 -3.03949 0
-600.407 -3.03031 0
-598.839 -3.02655 0
-597.269 -3.02182 0
-595.7 -3.01751 0
-594.129 -3.01169 0
-592.563 -3.00834 0
-590.992 -3.00165 0
-589.422 -2.99869 0
-587.851 -2.996 0
-586.281 -2.99341 0
-584.713 -2.99051 0
-583.142 -2.98646 0
-581.572 -2.98069 0
-580.003 -2.97992 0
-578.43 -2.98265 0
-576.863 -2.97733 0
-575.294 -2.97741 0
-573.726 -2.97815 0
-572.158 -2.97545 0
-570.59 -2.97196 0
-569.021 -2.97044 0
-567.449 -2.97091 0
-565.879 -2.97421 0
-564.311 -2.9741 0
-562.741 -2.97589 0
-561.171 -2.97498 0
-559.6 -2.97874 0
-558.031 -2.97675 0
-556.461 -2.97279 0
-554.893 -2.97885 0
-553.324 -2.97961 0
-551.755 -2.98147 0
-550.187 -2.9814 0
-548.616 -2.98495 0
-547.046 -2.98751 0
-545.477 -2.99357 0
-543.909 -2.99445 0
-542.34 -2.99661 0
-540.77 -3.00093 0
-539.204 -3.00689 0
-537.636 -3.01167 0
-536.066 -3.01013 0
-534.497 -3.01318 0
-532.926 -3.01169 0
-531.358 -3.01464 0
-529.794 -3.01764 0
-528.225 -3.02251 0
-526.658 -3.02747 0
-525.089 -3.03119 0
-523.52 -3.03465 0
-521.953 -3.03847 0
-520.384 -3.04103 0
-518.816 -3.04849 0
-517.247 -3.04631 0
-515.679 -3.05192 0
-514.111 -3.05102 0
-512.547 -3.05368 0
-510.98 -3.05663 0
-509.412 -3.05802 0
-507.842 -3.06401 0
-506.274 -3.0689 0
-504.706 -3.06962 0
-503.138 -3.07645 0
-501.569 -3.07917 0
-500.002 -3.0819 0
-498.435 -3.08035 0
-496.868 -3.08742 0
-495.3 -3.08766 0
-493.732 -3.08931 0
-492.163 -3.09349 0
-490.596 -3.09871 0
-489.028 -3.09729 0
-487.458 -3.10056 0
-485.891 -3.10465 0
-484.323 -3.10496 0
-482.757 -3.10764 0
-481.19 -3.10613 0
-479.624 -3.11077 0
-478.056 -3.11476 0
-476.486 -3.11612 0
-474.92 -3.12012 0
-473.352 -3.12144 0
-471.785 -3.11964 0
-470.217 -3.12028 0
-468.648 -3.12138 0
-467.081 -3.11928 0
-465.516 -3.1224 0
-463.945 -3.12675 0
-462.374 -3.12418 0
-460.808 -3.12545 0
-459.243 -3.12478 0
-457.676 -3.12577 0
-456.109 -3.12787 0
-454.541 -3.12653 0
-452.975 -3.12398 0
-451.407 -3.12525 0
-449.838 -3.12557 0
-448.27 -3.13053 0
-446.702 -3.13161 0
-445.135 -3.13032 0
-443.571 -3.12914 0
-442.003 -3.12785 0
-440.435 -3.12724 0
-438.868 -3.12913 0
-437.299 -3.13253 0
-435.731 -3.12753 0
-434.16 -3.12575 0
-432.593 -3.12419 0
-431.024 -3.12036 0
-429.459 -3.12408 0
-427.889 -3.12429 0
-426.32 -3.12443 0
-424.752 -3.12554 0
-423.187 -3.12085 0
-421.616 -3.12022 0
-420.051 -3.12398 0
-418.484 -3.12062 0
-416.916 -3.12268 0
-415.35 -3.11516 0
-413.778 -3.11593 0
-412.212 -3.11812 0
-410.643 -3.11824 0
-409.077 -3.11483 0
-407.51 -3.11806 0
-405.946 -3.11607 0
-404.38 -3.11534 0
-402.811 -3.11048 0
-401.242 -3.11129 0
-399.675 -3.10961 0
-398.108 -3.10883 0
-396.538 -3.10982 0
-394.969 -3.10716 0
-393.402 -3.10461 0
-391.833 -3.10108 0
-390.265 -3.09981 0
-388.7 -3.09249 0
-387.13 -3.0922 0
-385.563 -3.09344 0
-383.994 -3.09109 0
-382.425 -3.09506 0
-380.859 -3.09842 0
-379.29 -3.09448 0
-377.725 -3.09369 0
-376.157 -3.09145 0
-374.588 -3.09053 0
-373.017 -3.08873 0
-371.453 -3.08597 0
-369.885 -3.08586 0
-368.316 -3.0873 0
-366.745 -3.09213 0
-365.18 -3.08838 0
-363.612 -3.08641 0
-362.045 -3.08718 0
-360.479 -3.08565 0
-358.91 -3.08182 0
-357.339 -3.079 0
-355.771 -3.0802 0
-354.201 -3.08376 0
-352.635 -3.08287 0
-351.069 -3.07708 0
-349.502 -3.07841 0
-347.936 -3.07472 0
-346.364 -3.075 0
-344.798 -3.07598 0
-343.23 -3.07516 0
-341.661 -3.07363 0
-340.094 -3.07263 0
-338.523 -3.06851 0
-336.955 -3.06855 0
-335.387 -3.07018 0
-333.819 -3.07006 0
-332.252 -3.07092 0
-330.684 -3.073 0
-329.116 -3.07334 0
-327.548 -3.06982 0
-325.981 -3.06975 0
-324.41 -3.07023 0
-322.838 -3.06832 0
-321.27 -3.07194 0
-319.705 -3.06855 0
-318.139 -3.06778 0
-316.572 -3.06769 0
-315.004 -3.07084 0
-313.434 -3.07087 0
-311.868 -3.06824 0
-310.297 -3.06738 0
-308.733 -3.07139 0
-307.165 -3.07139 0
-305.599 -3.07361 0
-304.031 -3.06713 0
-302.465 -3.06485 0
-300.897 -3.06751 0
-299.327 -3.0715 0
-297.763 -3.06866 0
-296.195 -3.07246 0
-294.625 -3.07394 0
-293.057 -3.07021 0
-291.491 -3.07268 0
-289.923 -3.07468 0
-288.358 -3.07287 0
-286.788 -3.07473 0
-285.22 -3.07545 0
-283.65 -3.07454 0
-282.083 -3.07679 0
-280.517 -3.08105 0
-278.949 -3.07568 0
-277.379 -3.07211 0
-275.816 -3.07511 0
-274.243 -3.07748 0
-272.673 -3.08019 0
-271.104 -3.07985 0
-269.539 -3.08016 0
-267.972 -3.0798 0
-266.403 -3.07514 0
-264.836 -3.0756 0
-263.274 -3.07461 0
-261.705 -3.07564 0
-260.135 -3.07785 0
-258.567 -3.0736 0
-257 -3.07407 0
-255.433 -3.07605 0
-253.864 -3.07522 0
-252.298 -3.07837 0
-250.727 -3.07893 0
-249.159 -3.08182 0
-247.591 -3.0816 0
-246.025 -3.07879 0
-244.458 -3.0793 0
-242.889 -3.08258 0
-241.321 -3.08179 0
-239.751 -3.08393 0
-238.183 -3.08102 0
-236.618 -3.08303 0
-235.055 -3.0807 0
-233.486 -3.0774 0
-231.92 -3.07761 0
-230.352 -3.07755 0
-228.783 -3.07907 0
-227.214 -3.07935 0
-225.646 -3.08155 0
-224.077 -3.084 0
-222.514 -3.0866 0
-220.949 -3.08273 0
-219.385 -3.08442 0
-217.815 -3.08411 0
-216.246 -3.08533 0
-214.679 -3.08502 0
-213.113 -3.08395 0
-211.549 -3.08634 0
-209.982 -3.0835 0
-208.415 -3.08708 0
-206.848 -3.08199 0
-205.279 -3.08047 0
-203.713 -3.07854 0
-202.146 -3.08221 0
-200.578 -3.08141 0
-199.011 -3.08479 0
-197.445 -3.08362 0
-195.877 -3.08308 0
-194.307 -3.08326 0
-192.742 -3.08558 0
-191.172 -3.08673 0
-189.605 -3.08866 0
-188.034 -3.0877 0
-186.468 -3.08623 0
-184.904 -3.08082 0
-183.335 -3.08378 0
-181.769 -3.08507 0
-180.202 -3.08116 0
-178.637 -3.08398 0
-177.07 -3.08744 0
-175.499 -3.08442 0
-173.933 -3.08419 0
-172.365 -3.08761 0
-170.8 -3.08753 0
-169.233 -3.08728 0
-167.669 -3.08713 0
-166.1 -3.08912 0
-164.532 -3.08852 0
-162.965 -3.08631 0
-161.399 -3.08353 0
-159.834 -3.08191 0
-158.268 -3.08445 0
-156.7 -3.08709 0
-155.134 -3.08652 0
-153.567 -3.08417 0
-151.998 -3.08498 0
-150.431 -3.08396 0
-148.863 -3.08436 0
-147.295 -3.08288 0
-145.726 -3.08461 0
-144.16 -3.08515 0
-142.59 -3.08887 0
-141.022 -3.08561 0
-139.456 -3.08702 0
-137.887 -3.08607 0
-136.326 -3.08527 0
-134.759 -3.08715 0
-133.191 -3.08624 0
-131.627 -3.08493 0
-130.058 -3.08537 0
-128.491 -3.08666 0
-126.923 -3.08677 0
-125.354 -3.08657 0
-123.788 -3.08184 0
-122.222 -3.08503 0
-120.655 -3.08831 0
-119.093 -3.08685 0
-117.526 -3.08308 0
-115.955 -3.08139 0
-114.387 -3.08008 0
-112.823 -3.08107 0
-111.257 -3.07954 0
-109.687 -3.08279 0
-108.118 -3.08332 0
-106.551 -3.08387 0
-104.983 -3.08507 0
-103.419 -3.08441 0
-101.85 -3.08941 0
-100.282 -3.09081 0
-98.7158 -3.08814 0
-97.1458 -3.08715 0
-95.5782 -3.08433 0
-94.0121 -3.08491 0
-92.4465 -3.08681 0
-90.8796 -3.08674 0
-89.3107 -3.08854 0
-87.7442 -3.08811 0
-86.1802 -3.08698 0
-84.6149 -3.0909 0
-83.0466 -3.08512 0
-81.4786 -3.08683 0
-79.9106 -3.08589 0
-78.3468 -3.086 0
-76.7802 -3.08495 0
-75.212 -3.08285 0
-73.6458 -3.08436 0
-72.0786 -3.08831 0
-70.5096 -3.0894 0
-68.9451 -3.08646 0
-67.3758 -3.0855 0
-65.8121 -3.08565 0
-64.2467 -3.08257 0
-62.6773 -3.08277 0
-61.1087 -3.08251 0
-59.5409 -3.07745 0
-57.9743 -3.08316 0
-56.4053 -3.08261 0
-54.8417 -3.07754 0
-53.2722 -3.07839 0
-51.7053 -3.08013 0
-50.1388 -3.08029 0
-48.5725 -3.07608 0
-47.0075 -3.07717 0
-45.4426 -3.07358 0
-43.8746 -3.08187 0
-42.3074 -3.07795 0
-40.7411 -3.07804 0
-39.1765 -3.08223 0
-37.6064 -3.08447 0
-36.0406 -3.08226 0
-34.4743 -3.08088 0
-32.909 -3.07596 0
-31.3438 -3.07943 0
-29.7778 -3.07881 0
-28.2088 -3.07695 0
-26.6402 -3.07449 0
-25.0752 -3.07452 0
-23.5108 -3.07399 0
-21.9449 -3.07726 0
-20.3777 -3.07784 0
-18.8113 -3.07892 0
-17.242 -3.07799 0
-15.6707 -3.07793 0
-14.1025 -3.07884 0
-12.5351 -3.07726 0
-10.969 -3.08214 0
-9.40032 -3.07949 0
-7.83133 -3.07652 0
-6.26515 -3.07412 0
-4.70064 -3.07642 0
-3.13111 -3.07677 0
-1.56527 -3.07256 0
0 -3.07614 0
-1058.81 81.6809 0
-1058.81 72.5282 0
-1058.98 63.7627 0
-1059.09 55.2406 0
-1059.12 46.9889 0
-1059.05 39.0671 0
-1058.88 31.5518 0
-1058.64 24.5072 0
-1058.32 17.9807 0
-1057.94 11.999 0
-1057.49 6.5788 0
-1057 1.71775 0
-1056.52 -2.63375 0
-1056.1 -6.59059 0
-1055.73 -10.2098 0
-1055.37 -13.4992 0
-1054.95 -16.4692 0
-1054.47 -19.081 0
-1053.95 -21.3163 0
-1053.42 -23.1784 0
-1052.86 -24.6774 0
-1052.3 -25.8336 0
-1051.71 -26.6704 0
-1051.11 -27.2176 0
-1050.49 -27.505 0
-1049.84 -27.5641 0
-1049.17 -27.4219 0
-1048.45 -27.1028 0
-1047.7 -26.6294 0
-1046.91 -26.0216 0
-1046.07 -25.2983 0
-1045.2 -24.4746 0
-1044.28 -23.568 0
-1043.32 -22.5907 0
-1042.31 -21.5543 0
-1041.27 -20.4703 0
-1040.19 -19.3521 0
-1039.06 -18.2073 0
-1037.9 -17.0439 0
-1036.71 -15.871 0
-1035.47 -14.6959 0
-1034.21 -13.5252 0
-1032.91 -12.3645 0
-1031.58 -11.2187 0
-1030.23 -10.0918 0
-1028.84 -8.98921 0
-1027.43 -7.91366 0
-1025.99 -6.86855 0
-1024.53 -5.85763 0
-1023.05 -4.88337 0
-1021.55 -3.94692 0
-1020.03 -3.05039 0
-1018.49 -2.1939 0
-1016.94 -1.37918 0
-1015.37 -0.60775 0
-1013.78 0.119547 0
-1012.19 0.804339 0
-1010.58 1.44321 0
-1008.96 2.03857 0
-1007.33 2.58922 0
-1005.69 3.09622 0
-1004.04 3.56082 0
-1002.39 3.98206 0
-1000.73 4.36163 0
-999.069 4.69861 0
-997.399 4.99642 0
-995.727 5.25532 0
-994.052 5.47679 0
-992.375 5.66079 0
-990.696 5.80732 0
-989.015 5.92029 0
-987.334 6.00042 0
-985.653 6.04791 0
-983.973 6.06515 0
-982.295 6.05351 0
-980.617 6.01396 0
-978.942 5.94815 0
-977.27 5.85678 0
-975.599 5.74423 0
-973.932 5.60869 0
-972.267 5.45343 0
-970.607 5.27886 0
-968.95 5.08722 0
-967.297 4.87951 0
-965.649 4.6576 0
-964.004 4.4224 0
-962.364 4.17471 0
-960.728 3.91721 0
-959.097 3.65152 0
-957.47 3.3785 0
-955.849 3.09812 0
-954.232 2.81236 0
-952.618 2.52298 0
-951.011 2.23132 0
-949.407 1.93671 0
-947.806 1.64216 0
-946.211 1.34813 0
-944.62 1.05521 0
-943.034 0.765398 0
-941.451 0.478559 0
-939.872 0.195289 0
-938.297 -0.084002 0
-936.724 -0.3561 0