<?xml version="1.0"?>
<VTKFile type="StructuredGrid"  version="0.1" byte_order="LittleEndian" compressor="vtkZLibDataCompressor">
  <StructuredGrid WholeExtent="0 700 0 30 0 0">
    <Piece Extent="0 700 0 30 0 0">
      <PointData Vectors="Velocity">
        <DataArray type="Float32" Name="Velocity" NumberOfComponents="3" format="ascii">
-1085.67 136.086 0
-1085.98 124.297 0
-1086.34 112.63 0
-1086.72 101.175 0
-1087.12 89.9591 0
-1087.56 79.0453 0
-1088.05 68.5038 0
-1088.6 58.4088 0
-1089.16 48.8037 0
-1089.74 39.7029 0
-1090.31 31.1333 0
-1090.87 23.1048 0
-1091.41 15.6591 0
-1091.92 8.80129 0
-1092.31 2.54264 0
-1092.49 -3.27154 0
-1092.75 -8.79621 0
-1093.04 -13.9565 0
-1093.28 -18.7294 0
-1093.49 -23.1423 0
-1093.71 -27.1784 0
-1093.92 -30.811 0
-1094.11 -34.0535 0
-1094.27 -36.9179 0
-1094.39 -39.4181 0
-1094.47 -41.5625 0
-1094.49 -43.3774 0
-1094.47 -44.8828 0
-1094.39 -46.101 0
-1094.24 -47.0511 0
-1094.04 -47.759 0
-1093.77 -48.2247 0
-1093.44 -48.4802 0
-1093.04 -48.5366 0
-1092.57 -48.4095 0
-1092.05 -48.1068 0
-1091.46 -47.6609 0
-1090.8 -47.0639 0
-1090.09 -46.3374 0
-1089.31 -45.4977 0
-1088.48 -44.5512 0
-1087.59 -43.508 0
-1086.64 -42.3758 0
-1085.65 -41.1693 0
-1084.59 -39.8982 0
-1083.49 -38.5677 0
-1082.33 -37.1903 0
-1081.13 -35.7666 0
-1079.89 -34.3121 0
-1078.59 -32.8211 0
-1077.26 -31.3182 0
-1075.89 -29.7952 0
-1074.48 -28.2656 0
-1073.04 -26.7272 0
-1071.55 -25.1907 0
-1070.04 -23.6577 0
-1068.49 -22.127 0
-1066.92 -20.6184 0
-1065.31 -19.1231 0
-1063.69 -17.6486 0
-1062.04 -16.2034 0
-1060.36 -14.769 0
-1058.66 -13.3685 0
-1056.93 -11.9956 0
-1055.19 -10.6593 0
-1053.44 -9.35779 0
-1051.66 -8.09182 0
-1049.86 -6.86062 0
-1048.06 -5.67066 0
-1046.24 -4.51939 0
-1044.41 -3.4088 0
-1042.57 -2.3382 0
-1040.71 -1.31098 0
-1038.85 -0.325717 0
-1036.98 0.610223 0
-1035.11 1.50375 0
-1033.23 2.35181 0
-1031.34 3.16039 0
-1029.44 3.92072 0
-1027.54 4.63821 0
-1025.64 5.31046 0
-1023.74 5.93963 0
-1021.83 6.52276 0
-1019.92 7.06125 0
-1018.02 7.55713 0
-1016.11 8.01138 0
-1014.21 8.4278 0
-1012.31 8.79354 0
-1010.4 9.12437 0
-1008.5 9.41792 0
-1006.6 9.6667 0
-1004.71 9.88034 0
-1002.82 10.0518 0
-1000.93 10.195 0
-999.045 10.2965 0
-997.163 10.3638 0
-995.292 10.3975 0
-993.425 10.4008 0
-991.56 10.3688 0
-989.702 10.3082 0
-987.852 10.2189 0
-986.01 10.0981 0
-984.172 9.9506 0
-982.341 9.77837 0
-980.517 9.5835 0
-978.7 9.36225 0
-976.891 9.121 0
-975.089 8.85483 0
-973.292 8.56829 0
-971.505 8.26631 0
-969.725 7.94914 0
-967.951 7.61201 0
-966.186 7.25714 0
-964.429 6.89258 0
-962.679 6.50987 0
-960.935 6.11468 0
-959.197 5.71244 0
-957.468 5.30051 0
-955.746 4.87844 0
-954.035 4.45085 0
-952.326 4.01641 0
-950.627 3.57611 0
-948.933 3.1287 0
-947.245 2.68002 0
-945.562 2.22771 0
-943.885 1.77513 0
-942.217 1.32543 0
-940.554 0.870618 0
-938.897 0.417849 0
-937.245 -0.0347791 0
-935.598 -0.483658 0
-933.96 -0.927311 0
-932.323 -1.36803 0
-930.694 -1.8059 0
-929.066 -2.23839 0
-927.445 -2.66158 0
-925.826 -3.07757 0
-924.213 -3.48818 0
-922.604 -3.88984 0
-920.998 -4.28663 0
-919.395 -4.66833 0
-917.797 -5.04676 0
-916.202 -5.41213 0
-914.606 -5.76889 0
-913.016 -6.114 0
-911.426 -6.45163 0
-909.841 -6.77703 0
-908.256 -7.09178 0
-906.674 -7.39323 0
-905.092 -7.68513 0
-903.513 -7.96543 0
-901.937 -8.23398 0
-900.36 -8.48829 0
-898.785 -8.73129 0
-897.21 -8.96153 0
-895.637 -9.18011 0
-894.065 -9.38492 0
-892.49 -9.57554 0
-890.915 -9.75775 0
-889.341 -9.93005 0
-887.768 -10.0868 0
-886.195 -10.2304 0
-884.621 -10.3634 0
-883.048 -10.4874 0
-881.474 -10.5956 0
-879.899 -10.6946 0
-878.323 -10.7831 0
-876.746 -10.8573 0
-875.167 -10.9222 0
-873.592 -10.9776 0
-872.011 -11.0199 0
-870.43 -11.0522 0
-868.848 -11.0749 0
-867.264 -11.0898 0
-865.678 -11.0942 0
-864.093 -11.0869 0
-862.503 -11.0726 0
-860.912 -11.0507 0
-859.32 -11.0188 0
-857.728 -10.9769 0
-856.133 -10.9326 0
-854.538 -10.8792 0
-852.941 -10.8171 0
-851.34 -10.7456 0
-849.739 -10.6694 0
-848.136 -10.5882 0
-846.53 -10.5003 0
-844.922 -10.403 0
-843.312 -10.3072 0
-841.7 -10.2031 0
-840.086 -10.0948 0
-838.471 -9.9782 0
-836.856 -9.86087 0
-835.238 -9.74032 0
-833.615 -9.61345 0
-831.994 -9.48768 0
-830.37 -9.35588 0
-828.745 -9.22183 0
-827.113 -9.08484 0
-825.484 -8.94416 0
-823.852 -8.80418 0
-822.22 -8.65854 0
-820.584 -8.51939 0
-818.946 -8.37418 0
-817.306 -8.23202 0
-815.67 -8.08432 0
-814.031 -7.93966 0
-812.384 -7.79279 0
-810.742 -7.64885 0
-809.096 -7.50239 0
-807.448 -7.35545 0
-805.803 -7.21194 0
-804.155 -7.06591 0
-802.501 -6.92604 0
-800.851 -6.78729 0
-799.197 -6.65053 0
-797.543 -6.50747 0
-795.886 -6.37145 0
-794.228 -6.2358 0
-792.569 -6.10565 0
-790.913 -5.97875 0
-789.255 -5.84783 0
-787.597 -5.72458 0
-785.934 -5.60343 0
-784.271 -5.48091 0
-782.608 -5.36052 0
-780.944 -5.24735 0
-779.281 -5.13451 0
-777.617 -5.02609 0
-775.954 -4.92019 0
-774.287 -4.81561 0
-772.617 -4.71781 0
-770.95 -4.61956 0
-769.285 -4.52479 0
-767.62 -4.43805 0
-765.951 -4.34762 0
-764.282 -4.26723 0
-762.614 -4.19076 0
-760.943 -4.1128 0
-759.276 -4.04122 0
-757.609 -3.97312 0
-755.942 -3.90357 0
-754.27 -3.84431 0
-752.597 -3.78639 0
-750.928 -3.72921 0
-749.261 -3.67845 0
-747.589 -3.6307 0
-745.921 -3.58347 0
-744.254 -3.5429 0
-742.583 -3.50365 0
-740.915 -3.4697 0
-739.247 -3.43874 0
-737.578 -3.40957 0
-735.911 -3.38527 0
-734.243 -3.36414 0
-732.573 -3.3437 0
-730.908 -3.32913 0
-729.241 -3.31562 0
-727.577 -3.30394 0
-725.91 -3.29298 0
-724.247 -3.2913 0
-722.578 -3.28802 0
-720.916 -3.28903 0
-719.251 -3.29295 0
-717.588 -3.30029 0
-715.925 -3.30731 0
-714.266 -3.31514 0
-712.602 -3.332 0
-710.935 -3.34796 0
-709.276 -3.36496 0
-707.612 -3.38142 0
-705.952 -3.39891 0
-704.294 -3.42408 0
-702.634 -3.44918 0
-700.976 -3.4753 0
-699.319 -3.50068 0
-697.66 -3.53094 0
-696.001 -3.56116 0
-694.343 -3.59514 0
-692.686 -3.62902 0
-691.033 -3.66253 0
-689.379 -3.69994 0
-687.729 -3.7329 0
-686.07 -3.77063 0
-684.421 -3.81245 0
-682.769 -3.84825 0
-681.117 -3.88839 0
-679.464 -3.93158 0
-677.814 -3.97445 0
-676.164 -4.00885 0
-674.515 -4.05427 0
-672.864 -4.09634 0
-671.215 -4.13998 0
-669.564 -4.18551 0
-667.916 -4.22942 0
-666.264 -4.2732 0
-664.62 -4.31723 0
-662.972 -4.36513 0
-661.329 -4.40771 0
-659.682 -4.45503 0
-658.031 -4.49414 0
-656.387 -4.53731 0
-654.74 -4.58344 0
-653.098 -4.62543 0
-651.454 -4.67107 0
-649.808 -4.70677 0
-648.162 -4.74902 0
-646.519 -4.79045 0
-644.875 -4.83186 0
-643.232 -4.87425 0
-641.59 -4.91383 0
-639.95 -4.95203 0
-638.31 -4.98803 0
-636.664 -5.02473 0
-635.022 -5.06077 0
-633.38 -5.10184 0
-631.741 -5.13591 0
-630.098 -5.17276 0
-628.458 -5.20502 0
-626.819 -5.23251 0
-625.177 -5.26754 0
-623.534 -5.29448 0
-621.893 -5.32097 0
-620.254 -5.34861 0
-618.613 -5.37416 0
-616.975 -5.40108 0
-615.333 -5.42606 0
-613.691 -5.45406 0
-612.05 -5.47295 0
-610.412 -5.49926 0
-608.773 -5.52027 0
-607.13 -5.54116 0
-605.489 -5.5615 0
-603.853 -5.57825 0
-602.215 -5.59406 0
-600.574 -5.60714 0
-598.934 -5.62317 0
-597.293 -5.63571 0
-595.656 -5.65405 0
-594.016 -5.66625 0
-592.374 -5.67443 0
-590.731 -5.67967 0
-589.088 -5.68891 0
-587.449 -5.69746 0
-585.811 -5.70678 0
-584.174 -5.71358 0
-582.531 -5.71849 0
-580.891 -5.72353 0
-579.247 -5.7272 0
-577.61 -5.72922 0
-575.971 -5.73145 0
-574.326 -5.7299 0
-572.685 -5.73267 0
-571.045 -5.73587 0
-569.401 -5.72959 0
-567.761 -5.72726 0
-566.12 -5.71964 0
-564.477 -5.71793 0
-562.831 -5.711 0
-561.19 -5.70706 0
-559.546 -5.70448 0
-557.906 -5.69245 0
-556.265 -5.68514 0
-554.619 -5.67501 0
-552.98 -5.66681 0
-551.339 -5.65876 0
-549.696 -5.65033 0
-548.057 -5.6422 0
-546.412 -5.6295 0
-544.77 -5.61674 0
-543.127 -5.60348 0
-541.484 -5.59337 0
-539.845 -5.57854 0
-538.199 -5.56508 0
-536.554 -5.55507 0
-534.91 -5.5429 0
-533.258 -5.52195 0
-531.617 -5.51212 0
-529.974 -5.49257 0
-528.325 -5.47375 0
-526.682 -5.46381 0
-525.034 -5.44576 0
-523.391 -5.43255 0
-521.746 -5.41645 0
-520.099 -5.40033 0
-518.453 -5.37992 0
-516.813 -5.36547 0
-515.168 -5.34851 0
-513.523 -5.33288 0
-511.878 -5.30979 0
-510.23 -5.2957 0
-508.582 -5.27885 0
-506.934 -5.26363 0
-505.288 -5.24532 0
-503.644 -5.22915 0
-501.998 -5.21241 0
-500.351 -5.19527 0
-498.706 -5.17968 0
-497.059 -5.1668 0
-495.415 -5.15052 0
-493.765 -5.13208 0
-492.116 -5.11881 0
-490.467 -5.10563 0
-488.819 -5.09125 0
-487.174 -5.07871 0
-485.526 -5.06342 0
-483.882 -5.04841 0
-482.236 -5.03104 0
-480.587 -5.01434 0
-478.936 -5.00109 0
-477.289 -4.98672 0
-475.643 -4.97255 0
-473.999 -4.95798 0
-472.343 -4.94486 0
-470.695 -4.92971 0
-469.051 -4.91763 0
-467.404 -4.90654 0
-465.758 -4.89511 0
-464.109 -4.88445 0
-462.462 -4.87306 0
-460.815 -4.86432 0
-459.162 -4.85419 0
-457.519 -4.84707 0
-455.866 -4.83843 0
-454.221 -4.82715 0
-452.575 -4.81659 0
-450.924 -4.81462 0
-449.276 -4.80712 0
-447.628 -4.79495 0
-445.98 -4.78964 0
-444.329 -4.77724 0
-442.682 -4.76803 0
-441.034 -4.76863 0
-439.39 -4.76156 0
-437.739 -4.75206 0
-436.087 -4.7404 0
-434.439 -4.73943 0
-432.788 -4.73517 0
-431.142 -4.72729 0
-429.492 -4.7264 0
-427.845 -4.72282 0
-426.189 -4.71814 0
-424.543 -4.71536 0
-422.895 -4.71355 0
-421.248 -4.70814 0
-419.602 -4.70699 0
-417.954 -4.70254 0
-416.307 -4.70253 0
-414.66 -4.70314 0
-413.013 -4.69674 0
-411.364 -4.69582 0
-409.718 -4.69438 0
-408.065 -4.69986 0
-406.419 -4.7008 0
-404.769 -4.69645 0
-403.124 -4.69536 0
-401.475 -4.69775 0
-399.829 -4.70275 0
-398.183 -4.69834 0
-396.533 -4.6972 0
-394.886 -4.69666 0
-393.24 -4.70128 0
-391.588 -4.69545 0
-389.941 -4.69998 0
-388.297 -4.70043 0
-386.643 -4.70315 0
-384.998 -4.70747 0
-383.35 -4.70703 0
-381.701 -4.71347 0
-380.053 -4.70635 0
-378.408 -4.71293 0
-376.758 -4.72652 0
-375.111 -4.72607 0
-373.468 -4.73149 0
-371.821 -4.72809 0
-370.172 -4.73695 0
-368.523 -4.73628 0
-366.879 -4.7416 0
-365.229 -4.74223 0
-363.582 -4.74645 0
-361.938 -4.75025 0
-360.294 -4.75193 0
-358.65 -4.7609 0
-357.002 -4.7622 0
-355.354 -4.76449 0
-353.706 -4.77476 0
-352.062 -4.77346 0
-350.413 -4.7791 0
-348.767 -4.78589 0
-347.124 -4.78783 0
-345.479 -4.78449 0
-343.831 -4.79166 0
-342.187 -4.79924 0
-340.543 -4.80216 0
-338.899 -4.80652 0
-337.251 -4.81447 0
-335.606 -4.81941 0
-333.961 -4.82501 0
-332.316 -4.82788 0
-330.668 -4.83432 0
-329.022 -4.83319 0
-327.374 -4.83875 0
-325.726 -4.84525 0
-324.082 -4.84822 0
-322.44 -4.85788 0
-320.79 -4.85833 0
-319.149 -4.85982 0
-317.504 -4.86542 0
-315.858 -4.86884 0
-314.209 -4.87175 0
-312.568 -4.87135 0
-310.924 -4.87835 0
-309.279 -4.88315 0
-307.637 -4.89311 0
-305.995 -4.8969 0
-304.347 -4.90041 0
-302.704 -4.90219 0
-301.059 -4.9019 0
-299.41 -4.9077 0
-297.767 -4.91728 0
-296.117 -4.91665 0
-294.474 -4.92032 0
-292.821 -4.91829 0
-291.181 -4.92268 0
-289.53 -4.9273 0
-287.894 -4.92385 0
-286.248 -4.92519 0
-284.6 -4.93586 0
-282.957 -4.92748 0
-281.313 -4.93496 0
-279.667 -4.93848 0
-278.026 -4.94268 0
-276.38 -4.93965 0
-274.732 -4.94192 0
-273.086 -4.94282 0
-271.441 -4.94815 0
-269.791 -4.94446 0
-268.146 -4.95065 0
-266.501 -4.95279 0
-264.862 -4.95724 0
-263.212 -4.96119 0
-261.569 -4.96206 0
-259.921 -4.96918 0
-258.277 -4.96432 0
-256.632 -4.96524 0
-254.993 -4.96553 0
-253.343 -4.96667 0
-251.696 -4.9668 0
-250.055 -4.96923 0
-248.407 -4.96701 0
-246.762 -4.96613 0
-245.109 -4.97626 0
-243.467 -4.96645 0
-241.826 -4.96917 0
-240.18 -4.96743 0
-238.536 -4.96771 0
-236.891 -4.96253 0
-235.242 -4.96534 0
-233.599 -4.96692 0
-231.957 -4.96669 0
-230.311 -4.97042 0
-228.665 -4.96618 0
-227.021 -4.97462 0
-225.377 -4.96793 0
-223.733 -4.97212 0
-222.091 -4.96892 0
-220.445 -4.96823 0
-218.801 -4.96695 0
-217.154 -4.97172 0
-215.504 -4.96798 0
-213.863 -4.97334 0
-212.216 -4.96664 0
-210.568 -4.96112 0
-208.93 -4.96307 0
-207.279 -4.95617 0
-205.635 -4.95645 0
-203.991 -4.95708 0
-202.345 -4.95702 0
-200.7 -4.95957 0
-199.052 -4.95856 0
-197.41 -4.96012 0
-195.764 -4.94916 0
-194.124 -4.95564 0
-192.476 -4.95156 0
-190.831 -4.95441 0
-189.189 -4.95377 0
-187.541 -4.9519 0
-185.897 -4.94832 0
-184.25 -4.94929 0
-182.608 -4.9513 0
-180.959 -4.94078 0
-179.312 -4.94051 0
-177.665 -4.93501 0
-176.023 -4.92961 0
-174.375 -4.92668 0
-172.731 -4.93193 0
-171.085 -4.93743 0
-169.445 -4.93265 0
-167.798 -4.93068 0
-166.157 -4.93243 0
-164.51 -4.92276 0
-162.862 -4.92622 0
-161.222 -4.92512 0
-159.574 -4.92191 0
-157.927 -4.92091 0
-156.286 -4.92345 0
-154.636 -4.91522 0
-152.991 -4.91715 0
-151.344 -4.91567 0
-149.699 -4.91378 0
-148.051 -4.9113 0
-146.401 -4.91396 0
-144.762 -4.91132 0
-143.118 -4.90678 0
-141.477 -4.90361 0
-139.833 -4.90233 0
-138.176 -4.89984 0
-136.54 -4.90172 0
-134.895 -4.89861 0
-133.248 -4.90082 0
-131.598 -4.89898 0
-129.952 -4.89933 0
-128.304 -4.89412 0
-126.659 -4.89784 0
-125.012 -4.89745 0
-123.366 -4.89323 0
-121.728 -4.89503 0
-120.079 -4.8909 0
-118.44 -4.90256 0
-116.796 -4.89318 0
-115.146 -4.88633 0
-113.494 -4.88977 0
-111.848 -4.89032 0
-110.203 -4.8932 0
-108.56 -4.8927 0
-106.915 -4.89845 0
-105.271 -4.88955 0
-103.626 -4.89429 0
-101.989 -4.89332 0
-100.337 -4.88687 0
-98.6891 -4.89187 0
-97.0456 -4.8862 0
-95.4041 -4.88729 0
-93.7587 -4.88953 0
-92.1116 -4.89035 0
-90.4677 -4.88731 0
-88.8206 -4.88895 0
-87.1791 -4.88437 0
-85.5354 -4.88751 0
-83.8883 -4.88862 0
-82.2442 -4.88516 0
-80.5991 -4.88892 0
-78.9457 -4.88692 0
-77.304 -4.88321 0
-75.6594 -4.88545 0
-74.0131 -4.88136 0
-72.3693 -4.8787 0
-70.7289 -4.88098 0
-69.0822 -4.88578 0
-67.4355 -4.87993 0
-65.7934 -4.88071 0
-64.1479 -4.87761 0
-62.5 -4.87578 0
-60.8632 -4.87539 0
-59.2189 -4.87208 0
-57.5704 -4.86964 0
-55.9249 -4.87828 0
-54.2807 -4.87629 0
-52.635 -4.87044 0
-50.9882 -4.88135 0
-49.346 -4.87558 0
-47.6989 -4.88025 0
-46.0547 -4.87434 0
-44.4063 -4.87993 0
-42.7621 -4.88177 0
-41.1272 -4.88071 0
-39.4806 -4.88542 0
-37.8342 -4.88116 0
-36.1842 -4.87976 0
-34.5398 -4.87781 0
-32.8972 -4.87086 0
-31.2521 -4.8818 0
-29.6 -4.8752 0
-27.9615 -4.87925 0
-26.3171 -4.87853 0
-24.674 -4.87508 0
-23.0316 -4.87389 0
-21.3842 -4.87814 0
-19.7383 -4.87986 0
-18.0899 -4.87766 0
-16.444 -4.87965 0
-14.799 -4.87568 0
-13.1581 -4.86968 0
-11.5109 -4.87803 0
-9.86635 -4.87516 0
-8.22395 -4.87567 0
-6.57862 -4.87543 0
-4.93088 -4.8763 0
-3.28792 -4.87486 0
-1.64393 -4.87377 0
0 -4.87482 0
-1097.46 136.426 0
-1097.66 124.585 0
-1097.85 112.895 0
-1098.03 101.423 0
-1098.19 90.1896 0
-1098.33 79.2398 0
-1098.42 68.6528 0
-1098.49 58.5159 0
-1098.55 48.8754 0
-1098.59 39.7504 0
-1098.61 31.1599 0
-1098.59 23.1365 0
-1098.52 15.6926 0
-1098.38 8.85403 0
-1098.25 2.62204 0
-1098.22 -3.19359 0
-1098.14 -8.72484 0
-1098.01 -13.886 0
-1097.89 -18.6759 0
-1097.76 -23.0818 0
-1097.6 -27.1138 0
-1097.42 -30.746 0
-1097.22 -33.9779 0
-1097 -36.8256 0
-1096.76 -39.305 0
-1096.5 -41.4199 0
-1096.2 -43.2035 0
-1095.87 -44.6685 0
-1095.5 -45.8399 0
-1095.1 -46.7431 0
-1094.65 -47.4008 0
-1094.15 -47.8179 0
-1093.61 -48.0169 0
-1093.02 -48.0154 0
-1092.38 -47.8325 0
-1091.69 -47.4767 0
-1090.95 -46.9729 0
-1090.16 -46.3212 0
-1089.32 -45.5427 0
-1088.43 -44.6472 0
-1087.5 -43.6464 0
-1086.52 -42.5521 0
-1085.49 -41.3719 0
-1084.42 -40.1155 0
-1083.3 -38.7955 0
-1082.14 -37.419 0
-1080.95 -35.997 0
-1079.71 -34.5325 0
-1078.43 -33.0333 0
-1077.11 -31.5065 0
-1075.76 -29.9615 0
-1074.38 -28.4045 0
-1072.96 -26.8381 0
-1071.51 -25.2664 0
-1070.03 -23.6984 0
-1068.52 -22.1332 0
-1066.99 -20.5782 0
-1065.43 -19.0397 0
-1063.85 -17.5203 0
-1062.24 -16.0231 0
-1060.61 -14.5503 0
-1058.96 -13.0981 0
-1057.28 -11.6746 0
-1055.6 -10.2847 0
-1053.89 -8.9296 0
-1052.16 -7.61296 0
-1050.42 -6.32961 0
-1048.67 -5.08446 0
-1046.9 -3.87969 0
-1045.12 -2.71858 0
-1043.33 -1.59659 0
-1041.53 -0.516814 0
-1039.72 0.518864 0
-1037.9 1.51142 0
-1036.08 2.45692 0
-1034.25 3.35526 0
-1032.41 4.21261 0
-1030.56 5.02308 0
-1028.71 5.78801 0
-1026.86 6.50974 0
-1025 7.18435 0
-1023.14 7.8154 0
-1021.28 8.3976 0
-1019.42 8.93896 0
-1017.55 9.43489 0
-1015.68 9.89046 0
-1013.82 10.301 0
-1011.96 10.6713 0
-1010.1 10.9989 0
-1008.23 11.2873 0
-1006.38 11.5349 0
-1004.52 11.7448 0
-1002.66 11.9166 0
-1000.81 12.0516 0
-998.964 12.1495 0
-997.118 12.215 0
-995.276 12.2421 0
-993.442 12.2401 0
-991.612 12.2043 0
-989.782 12.1359 0
-987.96 12.0407 0
-986.142 11.9152 0
-984.333 11.7625 0
-982.526 11.5832 0
-980.726 11.3812 0
-978.933 11.1563 0
-977.144 10.9061 0
-975.362 10.6351 0
-973.586 10.3407 0
-971.816 10.032 0
-970.052 9.70526 0
-968.295 9.36455 0
-966.545 9.0024 0
-964.801 8.62948 0
-963.064 8.24152 0
-961.331 7.84141 0
-959.604 7.43145 0
-957.885 7.01169 0
-956.172 6.5845 0
-954.465 6.14906 0
-952.764 5.70918 0
-951.066 5.26244 0
-949.376 4.81086 0
-947.692 4.35435 0
-946.013 3.89765 0
-944.336 3.43954 0
-942.668 2.98251 0
-941.005 2.52145 0
-939.347 2.06202 0
-937.693 1.60701 0
-936.044 1.15408 0
-934.399 0.704189 0
-932.761 0.259952 0
-931.124 -0.180964 0
-929.492 -0.617866 0
-927.862 -1.04446 0
-926.237 -1.46632 0
-924.616 -1.87932 0
-922.998 -2.28619 0
-921.384 -2.68407 0
-919.772 -3.07315 0
-918.164 -3.45261 0
-916.558 -3.82081 0
-914.955 -4.17819 0
-913.353 -4.52857 0
-911.754 -4.86684 0
-910.157 -5.19422 0
-908.561 -5.50989 0
-906.967 -5.81435 0
-905.375 -6.10686 0
-903.785 -6.38927 0
-902.195 -6.65783 0
-900.607 -6.91481 0
-899.019 -7.15826 0
-897.431 -7.38989 0
-895.846 -7.60732 0
-894.261 -7.81341 0
-892.674 -8.00509 0
-891.089 -8.18665 0
-889.504 -8.35722 0
-887.918 -8.51538 0
-886.333 -8.66021 0
-884.748 -8.79333 0
-883.162 -8.91556 0
-881.577 -9.02449 0
-879.991 -9.12248 0
-878.403 -9.20926 0
-876.815 -9.28217 0
-875.228 -9.34717 0
-873.638 -9.40242 0
-872.048 -9.44328 0
-870.457 -9.47449 0
-868.865 -9.49699 0
-867.272 -9.50911 0
-865.676 -9.51248 0
-864.08 -9.50398 0
-862.484 -9.48816 0
-860.886 -9.46483 0
-859.286 -9.43161 0
-857.686 -9.39023 0
-856.083 -9.3422 0
-854.481 -9.28752 0
-852.876 -9.22194 0
-851.27 -9.14913 0
-849.662 -9.07307 0
-848.051 -8.98721 0
-846.438 -8.89851 0
-844.826 -8.80249 0
-843.212 -8.70123 0
-841.596 -8.59657 0
-839.977 -8.48474 0
-838.356 -8.36938 0
-836.736 -8.25085 0
-835.114 -8.12619 0
-833.491 -8.00023 0
-831.865 -7.86995 0
-830.239 -7.73756 0
-828.607 -7.60091 0
-826.976 -7.46326 0
-825.345 -7.32138 0
-823.711 -7.1783 0
-822.079 -7.03278 0
-820.443 -6.8905 0
-818.804 -6.74441 0
-817.166 -6.59967 0
-815.526 -6.45389 0
-813.886 -6.30625 0
-812.243 -6.15726 0
-810.598 -6.01032 0
-808.952 -5.86588 0
-807.308 -5.71752 0
-805.659 -5.57197 0
-804.012 -5.4248 0
-802.362 -5.28299 0
-800.712 -5.14366 0
-799.059 -5.00364 0
-797.405 -4.86145 0
-795.751 -4.72279 0
-794.098 -4.58896 0
-792.443 -4.45608 0
-790.784 -4.32842 0
-789.129 -4.19907 0
-787.471 -4.07187 0
-785.812 -3.94788 0
-784.152 -3.82742 0
-782.493 -3.7079 0
-780.831 -3.5927 0
-779.171 -3.47984 0
-777.509 -3.3729 0
-775.846 -3.26328 0
-774.186 -3.1605 0
-772.522 -3.06022 0
-770.858 -2.96272 0
-769.193 -2.86744 0
-767.53 -2.77957 0
-765.865 -2.6915 0
-764.203 -2.60788 0
-762.537 -2.53065 0
-760.871 -2.45553 0
-759.204 -2.38368 0
-757.54 -2.31274 0
-755.875 -2.24857 0
-754.21 -2.18286 0
-752.542 -2.12631 0
-750.877 -2.07109 0
-749.209 -2.01883 0
-747.545 -1.97033 0
-745.876 -1.92481 0
-744.211 -1.88502 0
-742.546 -1.84423 0
-740.883 -1.81237 0
-739.22 -1.77865 0
-737.553 -1.75176 0
-735.887 -1.72762 0
-734.222 -1.70776 0
-732.558 -1.68611 0
-730.892 -1.67083 0
-729.229 -1.65883 0
-727.566 -1.64682 0
-725.906 -1.63991 0
-724.242 -1.63411 0
-722.578 -1.6343 0
-720.916 -1.6364 0
-719.256 -1.6388 0
-717.595 -1.64495 0
-715.932 -1.65383 0
-714.273 -1.66403 0
-712.616 -1.67648 0
-710.955 -1.6943 0
-709.293 -1.71055 0
-707.634 -1.72944 0
-705.974 -1.7512 0
-704.318 -1.77379 0
-702.66 -1.79655 0
-701.005 -1.82436 0
-699.348 -1.85375 0
-697.691 -1.88191 0
-696.035 -1.91339 0
-694.379 -1.94813 0
-692.723 -1.98183 0
-691.071 -2.01818 0
-689.418 -2.05345 0
-687.763 -2.08832 0
-686.113 -2.12598 0
-684.461 -2.16833 0
-682.808 -2.2045 0
-681.155 -2.2466 0
-679.505 -2.28811 0
-677.853 -2.33031 0
-676.207 -2.37132 0
-674.557 -2.41241 0
-672.908 -2.45622 0
-671.257 -2.49966 0
-669.61 -2.54517 0
-667.96 -2.5877 0
-666.31 -2.63203 0
-664.663 -2.67953 0
-663.014 -2.72651 0
-661.368 -2.77059 0
-659.722 -2.81433 0
-658.075 -2.85568 0
-656.431 -2.89924 0
-654.784 -2.9441 0
-653.137 -2.98774 0
-651.492 -3.03361 0
-649.848 -3.07308 0
-648.205 -3.11349 0
-646.558 -3.15511 0
-644.915 -3.19484 0
-643.27 -3.23871 0
-641.628 -3.28022 0
-639.986 -3.31912 0
-638.343 -3.35518 0
-636.702 -3.39288 0
-635.057 -3.42903 0
-633.415 -3.46614 0
-631.772 -3.50258 0
-630.133 -3.53503 0
-628.489 -3.57066 0
-626.848 -3.60139 0
-625.206 -3.63192 0
-623.564 -3.66204 0
-621.922 -3.68764 0
-620.28 -3.71762 0
-618.642 -3.74421 0
-617 -3.76933 0
-615.361 -3.79528 0
-613.717 -3.82087 0
-612.075 -3.84502 0
-610.434 -3.86623 0
-608.793 -3.891 0
-607.152 -3.91096 0
-605.51 -3.93127 0
-603.868 -3.94847 0
-602.229 -3.96211 0
-600.59 -3.97455 0
-598.947 -3.9906 0
-597.308 -4.00652 0
-595.667 -4.02319 0
-594.026 -4.03278 0
-592.383 -4.04065 0
-590.74 -4.04922 0
-589.1 -4.05801 0
-587.46 -4.06642 0
-585.82 -4.07491 0
-584.177 -4.08107 0
-582.533 -4.08615 0
-580.893 -4.08959 0
-579.252 -4.09374 0
-577.608 -4.09565 0
-575.966 -4.09798 0
-574.33 -4.09593 0
-572.685 -4.0995 0
-571.04 -4.10063 0
-569.399 -4.09639 0
-567.754 -4.09246 0
-566.112 -4.08849 0
-564.471 -4.08227 0
-562.83 -4.0781 0
-561.186 -4.07245 0
-559.545 -4.06708 0
-557.901 -4.06104 0
-556.257 -4.05121 0
-554.617 -4.0439 0
-552.974 -4.03344 0
-551.328 -4.02634 0
-549.686 -4.01354 0
-548.045 -4.00728 0
-546.401 -3.99577 0
-544.757 -3.98169 0
-543.115 -3.96938 0
-541.471 -3.9593 0
-539.829 -3.94162 0
-538.184 -3.92778 0
-536.539 -3.91689 0
-534.891 -3.90244 0
-533.248 -3.8869 0
-531.598 -3.87337 0
-529.954 -3.85406 0
-528.308 -3.83923 0
-526.665 -3.82617 0
-525.02 -3.81127 0
-523.376 -3.79616 0
-521.729 -3.77952 0
-520.086 -3.76024 0
-518.442 -3.74247 0
-516.796 -3.72572 0
-515.151 -3.71145 0
-513.504 -3.69425 0
-511.859 -3.67408 0
-510.212 -3.65605 0
-508.567 -3.64134 0
-506.92 -3.62207 0
-505.271 -3.60709 0
-503.625 -3.59004 0
-501.981 -3.57488 0
-500.336 -3.55809 0
-498.69 -3.54013 0
-497.045 -3.52829 0
-495.398 -3.51024 0
-493.751 -3.49297 0
-492.102 -3.47843 0
-490.452 -3.463 0
-488.806 -3.45264 0
-487.161 -3.43849 0
-485.517 -3.42496 0
-483.866 -3.40887 0
-482.22 -3.39053 0
-480.572 -3.37455 0
-478.923 -3.36049 0
-477.276 -3.34821 0
-475.628 -3.33278 0
-473.983 -3.31918 0
-472.334 -3.30478 0
-470.686 -3.29109 0
-469.036 -3.2795 0
-467.39 -3.27084 0
-465.745 -3.25934 0
-464.099 -3.24614 0
-462.447 -3.23606 0
-460.798 -3.22459 0
-459.155 -3.21635 0
-457.506 -3.20722 0
-455.859 -3.20229 0
-454.211 -3.18921 0
-452.563 -3.18046 0
-450.917 -3.17173 0
-449.269 -3.16352 0
-447.618 -3.15565 0
-445.969 -3.15053 0
-444.32 -3.13888 0
-442.674 -3.13262 0
-441.026 -3.12729 0
-439.378 -3.12146 0
-437.73 -3.1097 0
-436.082 -3.10343 0
-434.433 -3.09994 0
-432.781 -3.09723 0
-431.136 -3.08877 0
-429.49 -3.08958 0
-427.841 -3.07908 0
-426.194 -3.07691 0
-424.541 -3.07374 0
-422.892 -3.07236 0
-421.246 -3.07066 0
-419.597 -3.06561 0
-417.95 -3.06756 0
-416.307 -3.06276 0
-414.658 -3.06337 0
-413.009 -3.05689 0
-411.365 -3.05594 0
-409.716 -3.05549 0
-408.069 -3.05813 0
-406.42 -3.05824 0
-404.772 -3.05643 0
-403.125 -3.05699 0
-401.479 -3.05652 0
-399.827 -3.05871 0
-398.177 -3.06006 0
-396.532 -3.05767 0
-394.884 -3.06004 0
-393.237 -3.05929 0
-391.589 -3.05772 0
-389.942 -3.06133 0
-388.299 -3.06468 0
-386.649 -3.06549 0
-384.999 -3.06704 0
-383.353 -3.07038 0
-381.707 -3.06958 0
-380.057 -3.07094 0
-378.412 -3.07642 0
-376.764 -3.0813 0
-375.117 -3.08852 0
-373.473 -3.08996 0
-371.824 -3.09003 0
-370.176 -3.09519 0
-368.53 -3.09505 0
-366.88 -3.09954 0
-365.231 -3.10177 0
-363.588 -3.1072 0
-361.941 -3.10893 0
-360.294 -3.11704 0
-358.65 -3.12155 0
-357.007 -3.12637 0
-355.362 -3.12731 0
-353.716 -3.13671 0
-352.065 -3.13458 0
-350.417 -3.14006 0
-348.774 -3.15017 0
-347.124 -3.15108 0
-345.48 -3.15175 0
-343.834 -3.15323 0
-342.187 -3.16302 0
-340.546 -3.16774 0
-338.902 -3.17191 0
-337.255 -3.17833 0
-335.607 -3.18062 0
-333.963 -3.18698 0
-332.32 -3.1886 0
-330.673 -3.19474 0
-329.025 -3.19631 0
-327.38 -3.20468 0
-325.736 -3.20931 0
-324.087 -3.21417 0
-322.441 -3.21485 0
-320.797 -3.22356 0
-319.151 -3.22376 0
-317.504 -3.22922 0
-315.86 -3.23193 0
-314.215 -3.23184 0
-312.57 -3.24312 0
-310.924 -3.24212 0
-309.285 -3.24759 0
-307.641 -3.25491 0
-305.996 -3.25816 0
-304.353 -3.26712 0
-302.706 -3.26902 0
-301.057 -3.26431 0
-299.413 -3.26928 0
-297.769 -3.27619 0
-296.123 -3.2789 0
-294.473 -3.28478 0
-292.828 -3.2816 0
-291.185 -3.28819 0
-289.54 -3.2893 0
-287.89 -3.2915 0
-286.246 -3.29126 0
-284.603 -3.29708 0
-282.956 -3.29382 0
-281.313 -3.29676 0
-279.672 -3.3013 0
-278.026 -3.30596 0
-276.379 -3.30555 0
-274.731 -3.30388 0
-273.09 -3.30525 0
-271.44 -3.30747 0
-269.796 -3.31293 0
-268.149 -3.31235 0
-266.504 -3.31752 0
-264.863 -3.31904 0
-263.217 -3.32243 0
-261.571 -3.32656 0
-259.925 -3.32634 0
-258.277 -3.32657 0
-256.635 -3.32651 0
-254.986 -3.33083 0
-253.341 -3.32864 0
-251.697 -3.32855 0
-250.051 -3.33072 0
-248.409 -3.32938 0
-246.76 -3.33068 0
-245.116 -3.33079 0
-243.47 -3.3329 0
-241.825 -3.33183 0
-240.179 -3.33267 0
-238.531 -3.33163 0
-236.888 -3.32499 0
-235.246 -3.32488 0
-233.604 -3.33109 0
-231.956 -3.32922 0
-230.312 -3.33322 0
-228.667 -3.33314 0
-227.024 -3.33558 0
-225.375 -3.33478 0
-223.733 -3.33525 0
-222.085 -3.3325 0
-220.439 -3.33289 0
-218.795 -3.33233 0
-217.154 -3.33074 0
-215.508 -3.33081 0
-213.861 -3.32997 0
-212.215 -3.32611 0
-210.57 -3.32743 0
-208.926 -3.32351 0
-207.282 -3.31669 0
-205.635 -3.3196 0
-203.991 -3.31999 0
-202.342 -3.31806 0
-200.696 -3.32187 0
-199.051 -3.32531 0
-197.409 -3.32125 0
-195.764 -3.3181 0
-194.121 -3.31516 0
-192.475 -3.31288 0
-190.83 -3.31844 0
-189.186 -3.31718 0
-187.541 -3.31421 0
-185.893 -3.31029 0
-184.245 -3.3102 0
-182.601 -3.31289 0
-180.954 -3.30418 0
-179.308 -3.30231 0
-177.665 -3.29499 0
-176.017 -3.29461 0
-174.375 -3.28895 0
-172.731 -3.29583 0
-171.088 -3.29741 0
-169.44 -3.29617 0
-167.797 -3.29809 0
-166.151 -3.29368 0
-164.511 -3.28879 0
-162.861 -3.28934 0
-161.215 -3.28714 0
-159.572 -3.28578 0
-157.923 -3.28448 0
-156.277 -3.28626 0
-154.632 -3.28136 0
-152.986 -3.27933 0
-151.34 -3.27705 0
-149.692 -3.27264 0
-148.048 -3.27467 0
-146.403 -3.27899 0
-144.756 -3.27688 0
-143.114 -3.27273 0
-141.469 -3.2679 0
-139.825 -3.26388 0
-138.181 -3.26621 0
-136.536 -3.26586 0
-134.887 -3.26314 0
-133.241 -3.26099 0
-131.599 -3.26261 0
-129.952 -3.26208 0
-128.304 -3.25494 0
-126.656 -3.25701 0
-125.01 -3.25953 0
-123.368 -3.25958 0
-121.723 -3.25741 0
-120.079 -3.25977 0
-118.436 -3.26302 0
-116.791 -3.2578 0
-115.141 -3.25025 0
-113.499 -3.25264 0
-111.853 -3.25621 0
-110.208 -3.25465 0
-108.56 -3.25822 0
-106.914 -3.25584 0
-105.269 -3.25541 0
-103.627 -3.25502 0
-101.982 -3.25475 0
-100.342 -3.25029 0
-98.6949 -3.25286 0
-97.0477 -3.25438 0
-95.4031 -3.24845 0
-93.7583 -3.24712 0
-92.1117 -3.24983 0
-90.4634 -3.24989 0
-88.8199 -3.24877 0
-87.1784 -3.24976 0
-85.5301 -3.25021 0
-83.8838 -3.2484 0
-82.2389 -3.25067 0
-80.5972 -3.2506 0
-78.9526 -3.24991 0
-77.3078 -3.24924 0
-75.6645 -3.24843 0
-74.0185 -3.24358 0
-72.3737 -3.24258 0
-70.7305 -3.2463 0
-69.0837 -3.24492 0
-67.4345 -3.24185 0
-65.7933 -3.24332 0
-64.1493 -3.24335 0
-62.5035 -3.24053 0
-60.8584 -3.23836 0
-59.2108 -3.23244 0
-57.5709 -3.23773 0
-55.9275 -3.23767 0
-54.2816 -3.24024 0
-52.636 -3.23893 0
-50.9937 -3.23717 0
-49.3439 -3.23856 0
-47.6992 -3.245 0
-46.0532 -3.23807 0
-44.4081 -3.24638 0
-42.7654 -3.24758 0
-41.1231 -3.24756 0
-39.4772 -3.2441 0
-37.83 -3.24406 0
-36.1875 -3.24101 0
-34.541 -3.24067 0
-32.8943 -3.23644 0
-31.2497 -3.24266 0
-29.6052 -3.23768 0
-27.9631 -3.24329 0
-26.3152 -3.24397 0
-24.6682 -3.23748 0
-23.0231 -3.2386 0
-21.3812 -3.24038 0
-19.734 -3.239 0
-18.0872 -3.24093 0
-16.4438 -3.24269 0
-14.799 -3.2345 0
-13.1529 -3.23588 0
-11.5119 -3.24418 0
-9.8717 -3.24154 0
-8.22288 -3.24326 0
-6.57722 -3.23907 0
-4.93512 -3.23648 0
-3.28974 -3.23906 0
-1.64175 -3.23942 0
0 -3.24112 0
-1109.51 137.09 0
-1109.32 125.053 0
-1109.29 113.367 0
-1109.22 101.903 0
-1109.1 90.6957 0
-1108.9 79.778 0
-1108.63 69.2205 0
-1108.28 59.0861 0
-1107.88 49.4421 0
-1107.44 40.3152 0
-1106.94 31.731 0
-1106.4 23.7247 0
-1105.81 16.3001 0
-1105.19 9.4598 0
-1104.61 3.12964 0
-1104.09 -2.77278 0
-1103.63 -8.28949 0
-1103.16 -13.4442 0
-1102.65 -18.2342 0
-1102.13 -22.6385 0
-1101.58 -26.6549 0
-1101.01 -30.2845 0
-1100.43 -33.517 0
-1099.84 -36.3614 0
-1099.23 -38.8313 0
-1098.62 -40.9403 0
-1097.99 -42.7058 0
-1097.35 -44.1529 0
-1096.69 -45.3014 0
-1096.02 -46.1788 0
-1095.32 -46.8004 0
-1094.59 -47.186 0
-1093.84 -47.3492 0
-1093.05 -47.3073 0
-1092.23 -47.0854 0
-1091.37 -46.69 0
-1090.48 -46.1407 0
-1089.55 -45.4477 0
-1088.59 -44.628 0
-1087.58 -43.6898 0
-1086.55 -42.6485 0
-1085.48 -41.5101 0
-1084.37 -40.2878 0
-1083.22 -38.9934 0
-1082.04 -37.6335 0
-1080.83 -36.2214 0
-1079.58 -34.7606 0
-1078.3 -33.2613 0
-1076.99 -31.7274 0
-1075.65 -30.1676 0
-1074.28 -28.5911 0
-1072.88 -27.0019 0
-1071.46 -25.404 0
-1070 -23.8064 0
-1068.53 -22.2095 0
-1067.02 -20.619 0
-1065.5 -19.0417 0
-1063.95 -17.4796 0
-1062.39 -15.9364 0
-1060.8 -14.4178 0
-1059.19 -12.9219 0
-1057.56 -11.4527 0
-1055.92 -10.0122 0
-1054.26 -8.60454 0
-1052.59 -7.2358 0
-1050.9 -5.89951 0
-1049.19 -4.60401 0
-1047.48 -3.34415 0
-1045.75 -2.13194 0
-1044.01 -0.957388 0
-1042.26 0.174113 0
-1040.5 1.26266 0
-1038.73 2.30616 0
-1036.96 3.3067 0
-1035.18 4.25785 0
-1033.39 5.16644 0
-1031.59 6.02827 0
-1029.79 6.84207 0
-1027.98 7.61265 0
-1026.17 8.33462 0
-1024.36 9.01377 0
-1022.54 9.64546 0
-1020.72 10.2317 0
-1018.9 10.7731 0
-1017.08 11.2712 0
-1015.26 11.7249 0
-1013.43 12.1356 0
-1011.61 12.5074 0
-1009.79 12.8348 0
-1007.97 13.1205 0
-1006.14 13.367 0
-1004.32 13.5711 0
-1002.51 13.7411 0
-1000.69 13.8741 0
-998.878 13.9696 0
-997.066 14.031 0
-995.259 14.0548 0
-993.454 14.0463 0
-991.655 14.0078 0
-989.859 13.9371 0
-988.063 13.836 0
-986.273 13.7068 0
-984.487 13.5502 0
-982.705 13.364 0
-980.931 13.1581 0
-979.16 12.9261 0
-977.394 12.67 0