<?xml version="1.0"?>
<VTKFile type="StructuredGrid"  version="0.1" byte_order="LittleEndian" compressor="vtkZLibDataCompressor">
  <StructuredGrid WholeExtent="0 700 0 30 0 0">
    <Piece Extent="0 700 0 30 0 0">
      <PointData Vectors="Velocity">
        <DataArray type="Float32" Name="Velocity" NumberOfComponents="3" format="ascii">
-1083.26 123.675 0
-1083.59 112.482 0
-1083.97 101.41 0
-1084.39 90.547 0
-1084.82 79.9281 0
-1085.29 69.6189 0
-1085.82 59.6926 0
-1086.38 50.2245 0
-1086.96 41.2393 0
-1087.55 32.7663 0
-1088.12 24.8388 0
-1088.68 17.4558 0
-1089.21 10.6534 0
-1089.69 4.43933 0
-1090.03 -1.236 0
-1090.26 -6.51254 0
-1090.52 -11.4828 0
-1090.68 -16.1404 0
-1090.93 -20.4351 0
-1091.19 -24.33 0
-1091.41 -27.8332 0
-1091.6 -30.9391 0
-1091.77 -33.6642 0
-1091.9 -36.025 0
-1091.99 -38.0264 0
-1092.03 -39.7036 0
-1092.01 -41.0735 0
-1091.92 -42.1502 0
-1091.79 -42.9672 0
-1091.57 -43.5323 0
-1091.29 -43.8743 0
-1090.94 -44.0122 0
-1090.52 -43.9584 0
-1090.03 -43.7272 0
-1089.47 -43.345 0
-1088.86 -42.8153 0
-1088.18 -42.1454 0
-1087.44 -41.3595 0
-1086.63 -40.4692 0
-1085.76 -39.4862 0
-1084.84 -38.4146 0
-1083.86 -37.2649 0
-1082.82 -36.051 0
-1081.73 -34.7794 0
-1080.58 -33.4604 0
-1079.39 -32.1032 0
-1078.16 -30.7183 0
-1076.87 -29.3012 0
-1075.55 -27.8635 0
-1074.18 -26.4231 0
-1072.78 -24.973 0
-1071.33 -23.518 0
-1069.85 -22.0621 0
-1068.34 -20.6236 0
-1066.8 -19.1967 0
-1065.23 -17.7754 0
-1063.62 -16.3779 0
-1062 -15.0012 0
-1060.34 -13.6533 0
-1058.67 -12.3298 0
-1056.97 -11.037 0
-1055.25 -9.77712 0
-1053.52 -8.5515 0
-1051.76 -7.36474 0
-1049.99 -6.2138 0
-1048.2 -5.10172 0
-1046.4 -4.02778 0
-1044.59 -2.997 0
-1042.76 -2.01044 0
-1040.92 -1.06859 0
-1039.08 -0.16853 0
-1037.23 0.688971 0
-1035.37 1.50236 0
-1033.5 2.269 0
-1031.63 2.99718 0
-1029.75 3.67666 0
-1027.87 4.31094 0
-1025.99 4.90265 0
-1024.1 5.45251 0
-1022.21 5.958 0
-1020.32 6.42404 0
-1018.43 6.84562 0
-1016.54 7.22286 0
-1014.66 7.56297 0
-1012.77 7.86296 0
-1010.89 8.11926 0
-1009.01 8.3399 0
-1007.13 8.52409 0
-1005.25 8.67234 0
-1003.38 8.78279 0
-1001.52 8.85541 0
-999.656 8.8992 0
-997.801 8.90987 0
-995.95 8.88908 0
-994.104 8.83837 0
-992.263 8.7589 0
-990.433 8.64959 0
-988.606 8.51491 0
-986.787 8.35295 0
-984.976 8.16801 0
-983.17 7.96002 0
-981.368 7.7279 0
-979.581 7.48123 0
-977.796 7.21228 0
-976.018 6.92331 0
-974.25 6.62023 0
-972.487 6.29936 0
-970.732 5.96292 0
-968.985 5.61564 0
-967.248 5.25327 0
-965.515 4.88151 0
-963.791 4.49836 0
-962.075 4.10921 0
-960.365 3.71308 0
-958.661 3.30805 0
-956.969 2.89682 0
-955.281 2.48211 0
-953.598 2.06484 0
-951.924 1.64646 0
-950.256 1.22368 0
-948.591 0.802034 0
-946.935 0.381549 0
-945.284 -0.0400267 0
-943.639 -0.457902 0
-942.001 -0.874448 0
-940.37 -1.2855 0
-938.739 -1.69157 0
-937.115 -2.09343 0
-935.496 -2.48907 0
-933.88 -2.87845 0
-932.268 -3.26338 0
-930.662 -3.63835 0
-929.06 -4.00521 0
-927.46 -4.36289 0
-925.863 -4.71113 0
-924.271 -5.0521 0
-922.681 -5.38356 0
-921.095 -5.70341 0
-919.508 -6.01307 0
-917.927 -6.30943 0
-916.345 -6.59733 0
-914.766 -6.87606 0
-913.191 -7.1386 0
-911.615 -7.39191 0
-910.042 -7.63556 0
-908.47 -7.86412 0
-906.896 -8.08389 0
-905.325 -8.29099 0
-903.756 -8.48418 0
-902.186 -8.66519 0
-900.616 -8.83672 0
-899.044 -8.99326 0
-897.476 -9.14127 0
-895.907 -9.2756 0
-894.339 -9.39682 0
-892.768 -9.51007 0
-891.198 -9.60957 0
-889.627 -9.69825 0
-888.055 -9.77438 0
-886.481 -9.84117 0
-884.906 -9.89796 0
-883.331 -9.94563 0
-881.755 -9.97941 0
-880.178 -10.0063 0
-878.6 -10.022 0
-877.018 -10.0263 0
-875.436 -10.0217 0
-873.853 -10.0106 0
-872.267 -9.99198 0
-870.682 -9.96511 0
-869.094 -9.92953 0
-867.504 -9.88297 0
-865.913 -9.83241 0
-864.321 -9.77245 0
-862.727 -9.70765 0
-861.128 -9.63725 0
-859.531 -9.55857 0
-857.929 -9.47457 0
-856.326 -9.38696 0
-854.72 -9.2926 0
-853.115 -9.19297 0
-851.506 -9.09039 0
-849.896 -8.9816 0
-848.285 -8.86773 0
-846.67 -8.75308 0
-845.055 -8.63648 0
-843.436 -8.51416 0
-841.818 -8.39008 0
-840.198 -8.26374 0
-838.575 -8.13017 0
-836.95 -8.00157 0
-835.324 -7.86812 0
-833.696 -7.73706 0
-832.064 -7.60022 0
-830.433 -7.46625 0
-828.799 -7.33058 0
-827.164 -7.1929 0
-825.526 -7.05845 0
-823.888 -6.92203 0
-822.248 -6.78652 0
-820.608 -6.65239 0
-818.966 -6.52011 0
-817.321 -6.3871 0
-815.674 -6.25553 0
-814.029 -6.12778 0
-812.381 -5.99744 0
-810.733 -5.87244 0
-809.085 -5.74608 0
-807.433 -5.62234 0
-805.783 -5.50146 0
-804.132 -5.38248 0
-802.478 -5.26789 0
-800.825 -5.15788 0
-799.173 -5.04289 0
-797.515 -4.93258 0
-795.855 -4.82476 0
-794.198 -4.72046 0
-792.541 -4.6241 0
-790.881 -4.53002 0
-789.221 -4.43721 0
-787.561 -4.35009 0
-785.901 -4.26085 0
-784.241 -4.17816 0
-782.583 -4.09904 0
-780.917 -4.02179 0
-779.258 -3.94823 0
-777.599 -3.8779 0
-775.937 -3.81059 0
-774.275 -3.74501 0
-772.612 -3.68602 0
-770.947 -3.63079 0
-769.289 -3.57494 0
-767.627 -3.52812 0
-765.966 -3.48385 0
-764.307 -3.44043 0
-762.642 -3.40178 0
-760.982 -3.36623 0
-759.321 -3.33592 0
-757.658 -3.30431 0
-756 -3.27765 0
-754.339 -3.25737 0
-752.679 -3.23481 0
-751.02 -3.22025 0
-749.36 -3.20365 0
-747.701 -3.19112 0
-746.042 -3.18163 0
-744.384 -3.17696 0
-742.726 -3.17347 0
-741.068 -3.17392 0
-739.41 -3.17463 0
-737.751 -3.18153 0
-736.096 -3.18719 0
-734.438 -3.19674 0
-732.782 -3.21031 0
-731.131 -3.22749 0
-729.479 -3.23858 0
-727.823 -3.25743 0
-726.17 -3.27819 0
-724.515 -3.30154 0
-722.864 -3.32404 0
-721.211 -3.34832 0
-719.562 -3.37425 0
-717.911 -3.40207 0
-716.258 -3.43109 0
-714.608 -3.4635 0
-712.958 -3.49786 0
-711.309 -3.53229 0
-709.663 -3.56706 0
-708.014 -3.60656 0
-706.368 -3.64026 0
-704.719 -3.68127 0
-703.074 -3.71765 0
-701.43 -3.75768 0
-699.782 -3.79742 0
-698.14 -3.83831 0
-696.496 -3.87916 0
-694.852 -3.92137 0
-693.21 -3.96239 0
-691.567 -4.00547 0
-689.925 -4.04781 0
-688.283 -4.08924 0
-686.638 -4.13084 0
-684.997 -4.17743 0
-683.357 -4.21916 0
-681.72 -4.25783 0
-680.077 -4.30109 0
-678.432 -4.34526 0
-676.792 -4.38509 0
-675.152 -4.42863 0
-673.514 -4.46983 0
-671.876 -4.51252 0
-670.24 -4.54954 0
-668.604 -4.58751 0
-666.964 -4.62575 0
-665.329 -4.6685 0
-663.694 -4.70109 0
-662.057 -4.74102 0
-660.423 -4.77498 0
-658.786 -4.81221 0
-657.15 -4.84271 0
-655.518 -4.87882 0
-653.88 -4.90908 0
-652.245 -4.9419 0
-650.611 -4.97456 0
-648.977 -5.00508 0
-647.341 -5.03798 0
-645.705 -5.06135 0
-644.076 -5.09132 0
-642.44 -5.11496 0
-640.804 -5.13865 0
-639.169 -5.16652 0
-637.539 -5.19439 0
-635.908 -5.21385 0
-634.275 -5.23811 0
-632.639 -5.25361 0
-631.005 -5.273 0
-629.371 -5.29201 0
-627.738 -5.30952 0
-626.107 -5.32525 0
-624.475 -5.33835 0
-622.839 -5.35587 0
-621.206 -5.36974 0
-619.572 -5.38289 0
-617.938 -5.39558 0
-616.306 -5.40477 0
-614.673 -5.41426 0
-613.037 -5.42148 0
-611.401 -5.42688 0
-609.77 -5.43569 0
-608.135 -5.44193 0
-606.5 -5.4452 0
-604.867 -5.44839 0
-603.236 -5.44778 0
-601.599 -5.44947 0
-599.962 -5.452 0
-598.327 -5.45084 0
-596.693 -5.44926 0
-595.057 -5.44777 0
-593.42 -5.4472 0
-591.786 -5.44317 0
-590.152 -5.43767 0
-588.516 -5.43722 0
-586.881 -5.43287 0
-585.247 -5.42346 0
-583.616 -5.41978 0
-581.979 -5.41256 0
-580.342 -5.40571 0
-578.704 -5.39801 0
-577.071 -5.39162 0
-575.433 -5.38049 0
-573.796 -5.36988 0
-572.162 -5.36224 0
-570.524 -5.3522 0
-568.881 -5.34375 0
-567.247 -5.33633 0
-565.613 -5.32264 0
-563.972 -5.30892 0
-562.334 -5.29349 0
-560.693 -5.28272 0
-559.053 -5.268 0
-557.417 -5.25439 0
-555.779 -5.24135 0
-554.138 -5.22898 0
-552.498 -5.21554 0
-550.861 -5.20347 0
-549.221 -5.19058 0
-547.584 -5.17478 0
-545.947 -5.15811 0
-544.308 -5.1442 0
-542.669 -5.13029 0
-541.031 -5.1137 0
-539.39 -5.09927 0
-537.752 -5.09256 0
-536.11 -5.07619 0
-534.47 -5.0636 0
-532.833 -5.04843 0
-531.192 -5.03034 0
-529.547 -5.01984 0
-527.907 -5.00248 0
-526.266 -4.99205 0
-524.626 -4.97758 0
-522.987 -4.96433 0
-521.344 -4.94915 0
-519.702 -4.93869 0
-518.058 -4.91983 0
-516.417 -4.91028 0
-514.777 -4.8988 0
-513.137 -4.87843 0
-511.491 -4.87069 0
-509.851 -4.86673 0
-508.211 -4.85312 0
-506.572 -4.84499 0
-504.928 -4.83318 0
-503.286 -4.82246 0
-501.646 -4.80897 0
-500.008 -4.79936 0
-498.369 -4.79319 0
-496.727 -4.78306 0
-495.083 -4.77097 0
-493.442 -4.75949 0
-491.797 -4.75528 0
-490.157 -4.74827 0
-488.513 -4.74039 0
-486.873 -4.73285 0
-485.227 -4.72334 0
-483.585 -4.71677 0
-481.947 -4.71213 0
-480.306 -4.70677 0
-478.661 -4.69765 0
-477.022 -4.69019 0
-475.377 -4.68338 0
-473.733 -4.67926 0
-472.091 -4.676 0
-470.451 -4.6709 0
-468.811 -4.66656 0
-467.168 -4.66255 0
-465.527 -4.66154 0
-463.884 -4.65809 0
-462.243 -4.65694 0
-460.602 -4.65002 0
-458.954 -4.64927 0
-457.315 -4.64901 0
-455.673 -4.64252 0
-454.029 -4.64822 0
-452.388 -4.64283 0
-450.748 -4.64905 0
-449.103 -4.64434 0
-447.459 -4.64023 0
-445.823 -4.64627 0
-444.182 -4.64289 0
-442.538 -4.64305 0
-440.903 -4.64896 0
-439.261 -4.65232 0
-437.618 -4.65626 0
-435.979 -4.65422 0
-434.335 -4.65943 0
-432.697 -4.6601 0
-431.053 -4.66723 0
-429.417 -4.66339 0
-427.772 -4.66379 0
-426.134 -4.66454 0
-424.495 -4.66576 0
-422.852 -4.67201 0
-421.208 -4.6723 0
-419.57 -4.68107 0
-417.926 -4.68608 0
-416.287 -4.68824 0
-414.645 -4.6899 0
-413.005 -4.68811 0
-411.358 -4.69793 0
-409.718 -4.70984 0
-408.082 -4.70901 0
-406.442 -4.70952 0
-404.804 -4.7156 0
-403.166 -4.72098 0
-401.523 -4.72437 0
-399.883 -4.73 0
-398.242 -4.73021 0
-396.603 -4.73603 0
-394.96 -4.74089 0
-393.318 -4.74639 0
-391.675 -4.7558 0
-390.037 -4.75844 0
-388.395 -4.76676 0
-386.755 -4.76859 0
-385.124 -4.77494 0
-383.483 -4.78598 0
-381.842 -4.79082 0
-380.201 -4.79217 0
-378.565 -4.79502 0
-376.928 -4.8009 0
-375.285 -4.80554 0
-373.646 -4.81268 0
-372.005 -4.82231 0
-370.368 -4.82239 0
-368.732 -4.82074 0
-367.093 -4.82681 0
-365.451 -4.83248 0
-363.815 -4.83129 0
-362.172 -4.84219 0
-360.529 -4.84742 0
-358.892 -4.84949 0
-357.252 -4.85631 0
-355.611 -4.86102 0
-353.972 -4.86694 0
-352.336 -4.86669 0
-350.695 -4.86903 0
-349.054 -4.87032 0
-347.414 -4.87598 0
-345.78 -4.87805 0
-344.139 -4.88497 0
-342.503 -4.89389 0
-340.863 -4.89397 0
-339.222 -4.90099 0
-337.583 -4.90174 0
-335.945 -4.9076 0
-334.305 -4.91059 0
-332.663 -4.91004 0
-331.026 -4.91528 0
-329.392 -4.91359 0
-327.751 -4.91967 0
-326.113 -4.92149 0
-324.476 -4.92986 0
-322.835 -4.9245 0
-321.199 -4.92718 0
-319.559 -4.93355 0
-317.919 -4.93824 0
-316.283 -4.93453 0
-314.642 -4.94055 0
-313.008 -4.94686 0
-311.37 -4.93888 0
-309.735 -4.94494 0
-308.097 -4.9456 0
-306.455 -4.94678 0
-304.818 -4.94001 0
-303.179 -4.94587 0
-301.54 -4.95061 0
-299.898 -4.94872 0
-298.26 -4.94891 0
-296.622 -4.95095 0
-294.988 -4.95424 0
-293.352 -4.95638 0
-291.709 -4.95536 0
-290.065 -4.95099 0
-288.427 -4.95055 0
-286.786 -4.95069 0
-285.147 -4.95378 0
-283.514 -4.94928 0
-281.876 -4.95463 0
-280.238 -4.95247 0
-278.602 -4.94999 0
-276.963 -4.94645 0
-275.323 -4.94874 0
-273.685 -4.95256 0
-272.043 -4.95117 0
-270.408 -4.95221 0
-268.77 -4.95036 0
-267.137 -4.94913 0
-265.499 -4.95484 0
-263.859 -4.95092 0
-262.218 -4.94882 0
-260.582 -4.94468 0
-258.937 -4.94392 0
-257.3 -4.94847 0
-255.663 -4.94659 0
-254.018 -4.94003 0
-252.378 -4.94717 0
-250.738 -4.94006 0
-249.099 -4.93513 0
-247.46 -4.93737 0
-245.826 -4.92792 0
-244.186 -4.92604 0
-242.541 -4.92541 0
-240.905 -4.92742 0
-239.27 -4.92588 0
-237.636 -4.9312 0
-236.001 -4.92368 0
-234.356 -4.9212 0
-232.713 -4.92022 0
-231.071 -4.91777 0
-229.434 -4.91619 0
-227.79 -4.91384 0
-226.152 -4.9115 0
-224.504 -4.91424 0
-222.868 -4.91693 0
-221.229 -4.91444 0
-219.596 -4.91491 0
-217.953 -4.90525 0
-216.313 -4.91189 0
-214.68 -4.90396 0
-213.044 -4.90238 0
-211.402 -4.90015 0
-209.763 -4.89593 0
-208.123 -4.89855 0
-206.481 -4.89105 0
-204.843 -4.89434 0
-203.199 -4.8885 0
-201.562 -4.88921 0
-199.919 -4.88523 0
-198.284 -4.87938 0
-196.648 -4.8785 0
-195.014 -4.8822 0
-193.375 -4.87672 0
-191.738 -4.87455 0
-190.097 -4.87699 0
-188.456 -4.8739 0
-186.815 -4.87055 0
-185.178 -4.87072 0
-183.538 -4.87259 0
-181.896 -4.87607 0
-180.26 -4.86883 0
-178.62 -4.86277 0
-176.978 -4.86927 0
-175.344 -4.87009 0
-173.705 -4.87235 0
-172.062 -4.87423 0
-170.421 -4.87124 0
-168.786 -4.86829 0
-167.141 -4.86494 0
-165.501 -4.86452 0
-163.866 -4.86167 0
-162.225 -4.85894 0
-160.584 -4.86095 0
-158.947 -4.85664 0
-157.301 -4.8596 0
-155.669 -4.86042 0
-154.034 -4.8581 0
-152.392 -4.86681 0
-150.754 -4.86231 0
-149.118 -4.85914 0
-147.478 -4.8599 0
-145.84 -4.85925 0
-144.203 -4.86222 0
-142.56 -4.86208 0
-140.917 -4.86006 0
-139.272 -4.85728 0
-137.628 -4.86357 0
-135.991 -4.86056 0
-134.359 -4.87077 0
-132.721 -4.8661 0
-131.083 -4.86402 0
-129.442 -4.87092 0
-127.807 -4.86439 0
-126.167 -4.85858 0
-124.526 -4.85656 0
-122.883 -4.86628 0
-121.245 -4.8571 0
-119.609 -4.86432 0
-117.972 -4.86572 0
-116.335 -4.86523 0
-114.695 -4.86774 0
-113.058 -4.86699 0
-111.422 -4.86201 0
-109.785 -4.86054 0
-108.147 -4.863 0
-106.501 -4.8663 0
-104.864 -4.87456 0
-103.224 -4.87688 0
-101.587 -4.87007 0
-99.9464 -4.87249 0
-98.3149 -4.87186 0
-96.6721 -4.86762 0
-95.0298 -4.87293 0
-93.3933 -4.87378 0
-91.752 -4.86791 0
-90.1138 -4.873 0
-88.4755 -4.87228 0
-86.8392 -4.86702 0
-85.1997 -4.87158 0
-83.5637 -4.87817 0
-81.928 -4.87697 0
-80.2891 -4.87377 0
-78.644 -4.87878 0
-77.0077 -4.87187 0
-75.3656 -4.87538 0
-73.7334 -4.87275 0
-72.0929 -4.87271 0
-70.4548 -4.88003 0
-68.818 -4.88018 0
-67.1817 -4.87913 0
-65.5426 -4.87418 0
-63.9027 -4.87515 0
-62.2618 -4.87887 0
-60.6306 -4.88153 0
-58.989 -4.88152 0
-57.3476 -4.8757 0
-55.705 -4.87878 0
-54.0636 -4.88048 0
-52.4318 -4.88071 0
-50.7817 -4.88095 0
-49.1525 -4.8768 0
-47.514 -4.87813 0
-45.8797 -4.87616 0
-44.2376 -4.87569 0
-42.6012 -4.87607 0
-40.9584 -4.87579 0
-39.3243 -4.87775 0
-37.684 -4.88083 0
-36.0456 -4.8819 0
-34.4074 -4.87744 0
-32.7724 -4.87411 0
-31.1321 -4.87882 0
-29.4921 -4.87532 0
-27.8545 -4.87915 0
-26.2183 -4.87849 0
-24.5754 -4.87965 0
-22.9364 -4.87659 0
-21.2959 -4.88023 0
-19.6576 -4.87712 0
-18.0204 -4.88155 0
-16.3778 -4.87848 0
-14.743 -4.87973 0
-13.1064 -4.88277 0
-11.4652 -4.8787 0
-9.8261 -4.88953 0
-8.19155 -4.88896 0
-6.55523 -4.89046 0
-4.91272 -4.88555 0
-3.27493 -4.88228 0
-1.6365 -4.88275 0
0 -4.87739 0
-1094.46 124.048 0
-1094.68 112.799 0
-1094.9 101.7 0
-1095.11 90.8166 0
-1095.3 80.1807 0
-1095.44 69.8333 0
-1095.55 59.8658 0
-1095.65 50.3437 0
-1095.72 41.3268 0
-1095.76 32.8309 0
-1095.78 24.8826 0
-1095.75 17.4987 0
-1095.67 10.7057 0
-1095.54 4.50594 0
-1095.44 -1.15153 0
-1095.4 -6.43764 0
-1095.31 -11.4114 0
-1095.24 -16.0637 0
-1095.11 -20.3684 0
-1094.94 -24.2657 0
-1094.77 -27.7643 0
-1094.58 -30.8618 0
-1094.37 -33.5741 0
-1094.14 -35.9157 0
-1093.88 -37.8928 0
-1093.6 -39.5326 0
-1093.27 -40.8554 0
-1092.91 -41.8891 0
-1092.5 -42.6528 0
-1092.05 -43.1673 0
-1091.55 -43.4568 0
-1091 -43.533 0
-1090.4 -43.4211 0
-1089.74 -43.1324 0
-1089.03 -42.692 0
-1088.28 -42.1034 0
-1087.47 -41.3804 0
-1086.61 -40.5385 0
-1085.7 -39.5927 0
-1084.75 -38.5568 0
-1083.74 -37.4288 0
-1082.69 -36.2268 0
-1081.59 -34.9654 0
-1080.45 -33.646 0
-1079.26 -32.2794 0
-1078.04 -30.8808 0
-1076.77 -29.4487 0
-1075.47 -27.9924 0
-1074.12 -26.5176 0
-1072.75 -25.0362 0
-1071.34 -23.5475 0
-1069.89 -22.0601 0
-1068.42 -20.577 0
-1066.92 -19.1061 0
-1065.39 -17.6485 0
-1063.83 -16.2024 0
-1062.26 -14.7761 0
-1060.65 -13.3756 0
-1059.02 -12.0048 0
-1057.38 -10.6596 0
-1055.71 -9.34685 0
-1054.02 -8.0673 0
-1052.32 -6.82907 0
-1050.61 -5.62438 0
-1048.87 -4.45797 0
-1047.12 -3.33254 0
-1045.36 -2.24689 0
-1043.59 -1.2047 0
-1041.81 -0.208406 0
-1040.02 0.743494 0
-1038.22 1.65147 0
-1036.41 2.51666 0
-1034.59 3.33631 0
-1032.77 4.11085 0
-1030.94 4.84295 0
-1029.1 5.52617 0
-1027.27 6.16348 0
-1025.42 6.75901 0
-1023.58 7.3097 0
-1021.74 7.8177 0
-1019.89 8.28315 0
-1018.04 8.70384 0
-1016.19 9.08161 0
-1014.34 9.41724 0
-1012.5 9.71775 0
-1010.65 9.97182 0
-1008.81 10.1906 0
-1006.97 10.3703 0
-1005.13 10.5146 0
-1003.3 10.6208 0
-1001.46 10.6922 0
-999.632 10.7304 0
-997.808 10.7358 0
-995.987 10.711 0
-994.171 10.6544 0
-992.362 10.5682 0
-990.557 10.4527 0
-988.756 10.3138 0
-986.962 10.1448 0
-985.172 9.95312 0
-983.388 9.73918 0
-981.611 9.50231 0
-979.838 9.24569 0
-978.073 8.97043 0
-976.315 8.67448 0
-974.562 8.36633 0
-972.814 8.03856 0
-971.072 7.69594 0
-969.339 7.34022 0
-967.611 6.97064 0
-965.89 6.59236 0
-964.175 6.20456 0
-962.465 5.80817 0
-960.763 5.40377 0
-959.066 4.99202 0
-957.375 4.57568 0
-955.693 4.15478 0
-954.015 3.73137 0
-952.341 3.30509 0
-950.674 2.87829 0
-949.01 2.45246 0
-947.352 2.02423 0
-945.701 1.59882 0
-944.054 1.17531 0
-942.411 0.753531 0
-940.772 0.337271 0
-939.14 -0.0717242 0
-937.51 -0.4779 0
-935.884 -0.877433 0
-934.263 -1.27179 0
-932.646 -1.65929 0
-931.031 -2.03942 0
-929.419 -2.40931 0
-927.811 -2.77084 0
-926.206 -3.12248 0
-924.604 -3.46533 0
-923.003 -3.79989 0
-921.406 -4.12311 0
-919.81 -4.43182 0
-918.217 -4.73361 0
-916.625 -5.02271 0
-915.035 -5.30242 0
-913.447 -5.56666 0
-911.86 -5.82272 0
-910.275 -6.06485 0
-908.69 -6.29602 0
-907.107 -6.515 0
-905.524 -6.72258 0
-903.941 -6.91669 0
-902.359 -7.09933 0
-900.779 -7.27047 0
-899.197 -7.42927 0
-897.616 -7.57537 0
-896.035 -7.70945 0
-894.453 -7.83118 0
-892.873 -7.94242 0
-891.29 -8.04243 0
-889.708 -8.12954 0
-888.124 -8.20653 0
-886.543 -8.27281 0
-884.958 -8.32813 0
-883.372 -8.37374 0
-881.786 -8.40659 0
-880.199 -8.43203 0
-878.609 -8.44784 0
-877.019 -8.44998 0
-875.428 -8.44389 0
-873.837 -8.432 0
-872.245 -8.4125 0
-870.651 -8.38353 0
-869.054 -8.34504 0
-867.458 -8.29852 0
-865.859 -8.24689 0
-864.261 -8.18566 0
-862.658 -8.11734 0
-861.056 -8.04537 0
-859.451 -7.96596 0
-857.844 -7.87996 0
-856.237 -7.78944 0
-854.626 -7.69422 0
-853.013 -7.5938 0
-851.402 -7.48857 0
-849.788 -7.3783 0
-848.172 -7.26418 0
-846.555 -7.14593 0
-844.937 -7.02753 0
-843.317 -6.90447 0
-841.694 -6.77803 0
-840.069 -6.64996 0
-838.444 -6.5171 0
-836.818 -6.38571 0
-835.191 -6.25198 0
-833.562 -6.11661 0
-831.93 -5.98089 0
-830.297 -5.84244 0
-828.664 -5.70688 0
-827.028 -5.56833 0
-825.392 -5.43015 0
-823.753 -5.29401 0
-822.115 -5.15649 0
-820.475 -5.02189 0
-818.834 -4.8871 0
-817.192 -4.7526 0
-815.545 -4.62091 0
-813.902 -4.48973 0
-812.256 -4.36177 0
-810.611 -4.23352 0
-808.962 -4.10665 0
-807.314 -3.98294 0
-805.665 -3.86127 0
-804.015 -3.74026 0
-802.364 -3.62562 0
-800.712 -3.51271 0
-799.058 -3.39832 0
-797.405 -3.28666 0
-795.752 -3.1806 0
-794.098 -3.07685 0
-792.443 -2.97836 0
-790.787 -2.88371 0
-789.131 -2.78962 0
-787.474 -2.69853 0
-785.816 -2.61048 0
-784.16 -2.53002 0
-782.504 -2.44741 0
-780.845 -2.37343 0
-779.188 -2.29823 0
-777.531 -2.22973 0
-775.872 -2.16016 0
-774.214 -2.09497 0
-772.553 -2.03551 0
-770.895 -1.97926 0
-769.239 -1.92693 0
-767.582 -1.87821 0
-765.922 -1.83346 0
-764.263 -1.79103 0
-762.605 -1.75161 0
-760.948 -1.71747 0
-759.289 -1.68388 0
-757.631 -1.65387 0
-755.976 -1.62821 0
-754.319 -1.60769 0
-752.662 -1.58795 0
-751.005 -1.56991 0
-749.346 -1.55477 0
-747.691 -1.54347 0
-746.035 -1.5343 0
-744.379 -1.52847 0
-742.724 -1.52657 0
-741.069 -1.52611 0
-739.413 -1.53052 0
-737.759 -1.535 0
-736.103 -1.54254 0
-734.45 -1.55205 0
-732.797 -1.56631 0
-731.146 -1.58232 0
-729.492 -1.59895 0
-727.841 -1.61546 0
-726.191 -1.63544 0
-724.537 -1.65744 0
-722.887 -1.68318 0
-721.237 -1.7057 0
-719.589 -1.73461 0
-717.939 -1.76251 0
-716.289 -1.79073 0
-714.642 -1.82288 0
-712.994 -1.85896 0
-711.346 -1.89485 0
-709.698 -1.93014 0
-708.05 -1.9659 0
-706.404 -2.00643 0
-704.757 -2.04586 0
-703.113 -2.0843 0
-701.468 -2.12225 0
-699.826 -2.16382 0
-698.181 -2.20497 0
-696.537 -2.24401 0
-694.894 -2.28569 0
-693.251 -2.33119 0
-691.609 -2.37139 0
-689.966 -2.41498 0
-688.325 -2.45717 0
-686.681 -2.49886 0
-685.039 -2.54536 0
-683.398 -2.58837 0
-681.758 -2.62763 0
-680.117 -2.66888 0
-678.478 -2.71346 0
-676.835 -2.75563 0
-675.197 -2.79905 0
-673.558 -2.8415 0
-671.917 -2.88302 0
-670.28 -2.92136 0
-668.643 -2.95865 0
-667.005 -2.99888 0
-665.366 -3.04022 0
-663.732 -3.07645 0
-662.097 -3.11466 0
-660.461 -3.15116 0
-658.825 -3.18641 0
-657.188 -3.21845 0
-655.55 -3.25298 0
-653.913 -3.28511 0
-652.279 -3.31668 0
-650.643 -3.34981 0
-649.006 -3.38127 0
-647.372 -3.41142 0
-645.735 -3.43788 0
-644.101 -3.46458 0
-642.466 -3.49015 0
-640.83 -3.51556 0
-639.197 -3.54282 0
-637.563 -3.56949 0
-635.929 -3.59264 0
-634.294 -3.61191 0
-632.659 -3.62984 0
-631.023 -3.64854 0
-629.388 -3.66662 0
-627.753 -3.68624 0
-626.12 -3.70043 0
-624.487 -3.71391 0
-622.853 -3.72912 0
-621.217 -3.74682 0
-619.583 -3.75879 0
-617.948 -3.77351 0
-616.313 -3.77837 0
-614.68 -3.79109 0
-613.045 -3.79753 0
-611.411 -3.80401 0
-609.776 -3.81173 0
-608.141 -3.81578 0
-606.506 -3.8192 0
-604.873 -3.82395 0
-603.238 -3.82322 0
-601.602 -3.8247 0
-599.964 -3.8277 0
-598.328 -3.82622 0
-596.694 -3.82506 0
-595.056 -3.82249 0
-593.42 -3.82065 0
-591.782 -3.81988 0
-590.147 -3.81412 0
-588.512 -3.81043 0
-586.877 -3.80669 0
-585.241 -3.79974 0
-583.606 -3.79266 0
-581.969 -3.78682 0
-580.334 -3.77775 0
-578.698 -3.77151 0
-577.06 -3.76367 0
-575.422 -3.75346 0
-573.786 -3.74319 0
-572.15 -3.7366 0
-570.515 -3.72487 0
-568.875 -3.7161 0
-567.234 -3.70434 0
-565.596 -3.69492 0
-563.956 -3.67983 0
-562.317 -3.66578 0
-560.682 -3.65479 0
-559.043 -3.63875 0
-557.405 -3.6248 0
-555.763 -3.61272 0
-554.126 -3.59945 0
-552.487 -3.58955 0
-550.849 -3.57241 0
-549.207 -3.55952 0
-547.57 -3.54523 0
-545.93 -3.53502 0
-544.294 -3.51362 0
-542.655 -3.50185 0
-541.015 -3.48181 0
-539.377 -3.47037 0
-537.737 -3.45901 0
-536.097 -3.44536 0
-534.456 -3.43204 0
-532.817 -3.41769 0
-531.178 -3.39921 0
-529.536 -3.38559 0
-527.893 -3.37288 0
-526.253 -3.35928 0
-524.611 -3.34505 0
-522.971 -3.3309 0
-521.331 -3.31873 0
-519.688 -3.30669 0
-518.047 -3.29057 0
-516.404 -3.27742 0
-514.763 -3.2665 0
-513.126 -3.25018 0
-511.486 -3.239 0
-509.842 -3.23332 0
-508.201 -3.22264 0
-506.559 -3.21017 0
-504.916 -3.20082 0
-503.278 -3.18941 0
-501.641 -3.17958 0
-499.997 -3.16995 0
-498.354 -3.16059 0
-496.714 -3.15062 0
-495.073 -3.13854 0
-493.433 -3.12615 0
-491.789 -3.11994 0
-490.146 -3.11374 0
-488.505 -3.10788 0
-486.864 -3.09766 0
-485.223 -3.09032 0
-483.583 -3.08666 0
-481.944 -3.08232 0
-480.3 -3.07146 0
-478.657 -3.06264 0
-477.014 -3.05871 0
-475.372 -3.05133 0
-473.728 -3.04773 0
-472.087 -3.04514 0
-470.448 -3.04052 0
-468.804 -3.0377 0
-467.163 -3.03433 0
-465.522 -3.03073 0
-463.882 -3.02487 0
-462.24 -3.02329 0
-460.595 -3.01874 0
-458.954 -3.0167 0
-457.312 -3.01503 0
-455.673 -3.01126 0
-454.033 -3.01436 0
-452.388 -3.0129 0
-450.747 -3.01642 0
-449.105 -3.01297 0
-447.465 -3.01156 0
-445.824 -3.01399 0
-444.181 -3.01229 0
-442.54 -3.01472 0
-440.901 -3.01635 0
-439.262 -3.02082 0
-437.62 -3.01989 0
-435.978 -3.02447 0
-434.339 -3.02511 0
-432.702 -3.03071 0
-431.058 -3.03615 0
-429.416 -3.03602 0
-427.775 -3.03229 0
-426.133 -3.03301 0
-424.493 -3.03384 0
-422.854 -3.03838 0
-421.212 -3.04264 0
-419.575 -3.05068 0
-417.932 -3.0501 0
-416.29 -3.05853 0
-414.647 -3.05627 0
-413.006 -3.06035 0
-411.367 -3.06854 0
-409.725 -3.07657 0
-408.081 -3.07943 0
-406.443 -3.08011 0
-404.81 -3.08581 0
-403.167 -3.08926 0
-401.527 -3.09278 0
-399.884 -3.09813 0
-398.244 -3.1037 0
-396.606 -3.1069 0
-394.965 -3.11126 0
-393.325 -3.11301 0
-391.684 -3.12643 0
-390.043 -3.12997 0
-388.402 -3.13771 0
-386.763 -3.13999 0
-385.124 -3.1442 0
-383.486 -3.15213 0
-381.846 -3.15871 0
-380.205 -3.15962 0
-378.564 -3.16901 0
-376.929 -3.17172 0
-375.29 -3.17654 0
-373.651 -3.18219 0
-372.014 -3.19045 0
-370.372 -3.19397 0
-368.732 -3.19694 0
-367.095 -3.19945 0
-365.455 -3.2012 0
-363.814 -3.20425 0
-362.173 -3.21133 0
-360.535 -3.21605 0
-358.895 -3.22294 0
-357.259 -3.22857 0
-355.619 -3.22973 0
-353.98 -3.23844 0
-352.337 -3.24196 0
-350.697 -3.24098 0
-349.058 -3.24121 0
-347.422 -3.24612 0
-345.783 -3.25031 0
-344.143 -3.25545 0
-342.507 -3.2606 0
-340.866 -3.26636 0
-339.227 -3.26954 0
-337.589 -3.27637 0
-335.948 -3.27675 0
-334.312 -3.27947 0
-332.671 -3.28088 0
-331.028 -3.28891 0
-329.392 -3.28652 0
-327.757 -3.29196 0
-326.118 -3.29579 0
-324.48 -3.2951 0
-322.838 -3.29363 0
-321.2 -3.30062 0
-319.562 -3.30194 0
-317.922 -3.30703 0
-316.281 -3.30879 0
-314.644 -3.31217 0
-313.006 -3.31672 0
-311.366 -3.31368 0
-309.729 -3.31727 0
-308.092 -3.31413 0
-306.455 -3.31297 0
-304.818 -3.31114 0
-303.175 -3.31635 0
-301.537 -3.32179 0
-299.9 -3.32263 0
-298.26 -3.31891 0
-296.619 -3.32254 0
-294.987 -3.32574 0
-293.348 -3.32722 0
-291.708 -3.32244 0
-290.067 -3.32557 0
-288.43 -3.32191 0
-286.791 -3.3277 0
-285.154 -3.32279 0
-283.516 -3.32848 0
-281.879 -3.31974 0
-280.24 -3.32158 0
-278.599 -3.32515 0
-276.96 -3.32075 0
-275.321 -3.32405 0
-273.683 -3.32026 0
-272.043 -3.32155 0
-270.408 -3.32243 0
-268.77 -3.32168 0
-267.13 -3.31853 0
-265.494 -3.31898 0
-263.855 -3.3198 0
-262.216 -3.31884 0
-260.575 -3.3151 0
-258.937 -3.31589 0
-257.299 -3.31789 0
-255.655 -3.31392 0
-254.016 -3.31138 0
-252.375 -3.31504 0
-250.735 -3.31134 0
-249.095 -3.30961 0
-247.454 -3.306 0
-245.819 -3.30054 0
-244.18 -3.2961 0
-242.543 -3.29618 0
-240.901 -3.29818 0
-239.263 -3.30054 0
-237.628 -3.29851 0
-235.988 -3.29584 0
-234.355 -3.29105 0
-232.708 -3.29072 0
-231.064 -3.29099 0
-229.428 -3.28981 0
-227.792 -3.28546 0
-226.152 -3.28346 0
-224.512 -3.28488 0
-222.869 -3.2869 0
-221.231 -3.28537 0
-219.594 -3.2814 0
-217.955 -3.279 0
-216.314 -3.27842 0
-214.673 -3.27549 0
-213.036 -3.27311 0
-211.396 -3.27023 0
-209.764 -3.26731 0
-208.121 -3.26427 0
-206.486 -3.26471 0
-204.844 -3.26387 0
-203.204 -3.25808 0
-201.562 -3.25557 0
-199.922 -3.25516 0
-198.282 -3.25154 0
-196.649 -3.24722 0
-195.009 -3.25051 0
-193.369 -3.24975 0
-191.732 -3.24953 0
-190.093 -3.2454 0
-188.456 -3.24573 0
-186.814 -3.2446 0
-185.175 -3.2447 0
-183.536 -3.24367 0
-181.895 -3.24459 0
-180.256 -3.24114 0
-178.62 -3.23816 0
-176.979 -3.23917 0
-175.337 -3.24038 0
-173.7 -3.24081 0
-172.063 -3.23862 0
-170.422 -3.24271 0
-168.783 -3.23728 0
-167.141 -3.23642 0
-165.501 -3.23546 0
-163.863 -3.22954 0
-162.224 -3.23014 0
-160.587 -3.23274 0
-158.947 -3.22738 0
-157.307 -3.23029 0
-155.668 -3.23188 0
-154.029 -3.23019 0
-152.391 -3.23445 0
-150.75 -3.23407 0
-149.114 -3.23143 0
-147.479 -3.2287 0
-145.841 -3.23224 0
-144.2 -3.23618 0
-142.561 -3.23294 0
-140.918 -3.23024 0
-139.278 -3.23029 0
-137.633 -3.23316 0
-136.001 -3.23811 0
-134.359 -3.24023 0
-132.72 -3.23711 0
-131.084 -3.23759 0
-129.445 -3.23957 0
-127.803 -3.23589 0
-126.161 -3.22629 0
-124.523 -3.2262 0
-122.885 -3.23085 0
-121.248 -3.23374 0
-119.609 -3.23476 0
-117.969 -3.23517 0
-116.334 -3.23257 0
-114.696 -3.23714 0
-113.057 -3.24084 0
-111.423 -3.23685 0
-109.782 -3.2343 0
-108.143 -3.23185 0
-106.508 -3.2373 0
-104.873 -3.23947 0
-103.226 -3.24323 0
-101.587 -3.24639 0
-99.9498 -3.24372 0
-98.3094 -3.24248 0
-96.6722 -3.23975 0
-95.032 -3.24428 0
-93.3899 -3.24167 0
-91.7531 -3.24295 0
-90.1139 -3.24266 0
-88.4703 -3.23751 0
-86.8356 -3.24248 0
-85.2011 -3.24487 0
-83.5622 -3.24632 0
-81.9209 -3.24598 0
-80.2826 -3.24363 0
-78.6433 -3.24738 0
-77.0075 -3.24522 0
-75.3752 -3.24542 0
-73.7339 -3.24428 0
-72.0961 -3.24393 0
-70.4545 -3.24683 0
-68.8196 -3.25045 0
-67.1776 -3.24961 0
-65.539 -3.24315 0
-63.9008 -3.24613 0
-62.2614 -3.24803 0
-60.6191 -3.25178 0
-58.9845 -3.2496 0
-57.3462 -3.24706 0
-55.7052 -3.24623 0
-54.0672 -3.25012 0
-52.4247 -3.252 0
-50.7897 -3.25213 0
-49.1525 -3.25298 0
-47.5141 -3.24881 0
-45.8748 -3.24588 0
-44.2363 -3.24599 0
-42.5984 -3.24719 0
-40.9617 -3.24835 0
-39.3204 -3.25011 0
-37.6841 -3.25021 0
-36.0421 -3.25305 0
-34.4056 -3.25125 0
-32.7658 -3.24569 0
-31.1279 -3.24775 0
-29.4902 -3.24993 0
-27.8531 -3.25043 0
-26.2115 -3.24785 0
-24.575 -3.24775 0
-22.9386 -3.25068 0
-21.2985 -3.24932 0
-19.6579 -3.24896 0
-18.0207 -3.24962 0
-16.3831 -3.24768 0
-14.7452 -3.25461 0
-13.1041 -3.25736 0
-11.4658 -3.251 0
-9.82507 -3.25819 0
-8.18992 -3.25889 0
-6.55187 -3.2577 0
-4.9124 -3.25502 0
-3.27719 -3.25481 0
-1.63574 -3.25366 0
0 -3.25851 0
-1105.92 124.754 0
-1105.75 113.3 0
-1105.75 102.203 0
-1105.71 91.3276 0
-1105.6 80.7125 0
-1105.42 70.4012 0
-1105.15 60.449 0
-1104.82 50.9354 0
-1104.42 41.914 0
-1103.98 33.4156 0
-1103.48 25.4766 0
-1102.94 18.1018 0
-1102.35 11.3122 0
-1101.76 5.08819 0
-1101.22 -0.675446 0
-1100.74 -6.02143 0
-1100.3 -10.9938 0
-1099.83 -15.6383 0
-1099.33 -19.9131 0
-1098.8 -23.8062 0
-1098.24 -27.3001 0
-1097.67 -30.4005 0
-1097.08 -33.1082 0
-1096.48 -35.4451 0
-1095.87 -37.414 0
-1095.25 -39.0402 0
-1094.62 -40.3435 0
-1093.97 -41.3557 0
-1093.3 -42.0874 0
-1092.6 -42.5668 0
-1091.87 -42.8239 0
-1091.11 -42.86 0
-1090.32 -42.7058 0
-1089.5 -42.3778 0
-1088.64 -41.8881 0
-1087.74 -41.2597 0
-1086.8 -40.4951 0
-1085.83 -39.6093 0
-1084.81 -38.6205 0
-1083.76 -37.5378 0
-1082.67 -36.3695 0
-1081.55 -35.1252 0
-1080.39 -33.8224 0
-1079.19 -32.4642 0
-1077.96 -31.0599 0
-1076.7 -29.6242 0
-1075.4 -28.1554 0
-1074.08 -26.6638 0
-1072.72 -25.1559 0
-1071.33 -23.6407 0
-1069.92 -22.124 0
-1068.47 -20.6086 0
-1067.01 -19.095 0
-1065.51 -17.5974 0
-1064 -16.1146 0
-1062.45 -14.6481 0
-1060.89 -13.1978 0
-1059.31 -11.7763 0
-1057.71 -10.3838 0
-1056.09 -9.02146 0
-1054.45 -7.68983 0
-1052.8 -6.39547 0
-1051.14 -5.13927 0
-1049.45 -3.92108 0
-1047.76 -2.74072 0
-1046.05 -1.60372 0
-1044.33 -0.506943 0
-1042.6 0.545409 0
-1040.86 1.55146 0
-1039.11 2.51181 0
-1037.35 3.43038 0
-1035.58 4.30245 0
-1033.81 5.12752 0
-1032.03 5.90949 0
-1030.25 6.64348 0
-1028.46 7.33128 0
-1026.66 7.97352 0
-1024.86 8.5715 0
-1023.06 9.12415 0
-1021.26 9.63286 0
-1019.45 10.0997 0
-1017.64 10.5204 0
-1015.84 10.8994 0
-1014.03 11.2341 0
-1012.22 11.5313 0
-1010.42 11.7876 0
-1008.61 12.0029 0
-1006.81 12.1824 0
-1005 12.323 0
-1003.2 12.4258 0
-1001.4 12.4949 0
-999.605 12.5311 0
-997.813 12.5318 0
-996.025 12.5022 0
-994.237 12.4412 0
-992.454 12.3509 0
-990.676 12.231 0
-988.902 12.087 0
-987.132 11.9137 0
-985.365 11.7172 0
-983.603 11.4971 0
-981.846 11.256 0
-980.094 10.9933 0
-978.346 10.7121 0
-976.604 10.412 0
-974.867 10.0957 0
-973.137 9.76383 0