<?xml version="1.0"?>
<VTKFile type="StructuredGrid"  version="0.1" byte_order="LittleEndian" compressor="vtkZLibDataCompressor">
  <StructuredGrid WholeExtent="0 700 0 30 0 0">
    <Piece Extent="0 700 0 30 0 0">
      <PointData Vectors="Velocity">
        <DataArray type="Float32" Name="Velocity" NumberOfComponents="3" format="ascii">
-1083.86 126.144 0
-1084.19 114.806 0
-1084.58 103.59 0
-1084.98 92.5966 0
-1085.4 81.8459 0
-1085.87 71.4104 0
-1086.38 61.3406 0
-1086.94 51.723 0
-1087.52 42.6033 0
-1088.1 33.9846 0
-1088.69 25.907 0
-1089.24 18.3841 0
-1089.77 11.442 0
-1090.26 5.08396 0
-1090.6 -0.715953 0
-1090.84 -6.12678 0
-1091.1 -11.2213 0
-1091.29 -15.9762 0
-1091.52 -20.3879 0
-1091.78 -24.4007 0
-1092.01 -28.0135 0
-1092.2 -31.2305 0
-1092.37 -34.0695 0
-1092.51 -36.5401 0
-1092.6 -38.662 0
-1092.65 -40.4371 0
-1092.64 -41.8973 0
-1092.57 -43.0647 0
-1092.44 -43.9682 0
-1092.24 -44.6211 0
-1091.98 -45.0404 0
-1091.65 -45.249 0
-1091.25 -45.2619 0
-1090.78 -45.0932 0
-1090.25 -44.7538 0
-1089.65 -44.2738 0
-1088.98 -43.6509 0
-1088.26 -42.9036 0
-1087.48 -42.0479 0
-1086.63 -41.0849 0
-1085.73 -40.03 0
-1084.77 -38.9024 0
-1083.75 -37.703 0
-1082.68 -36.4451 0
-1081.56 -35.1351 0
-1080.38 -33.775 0
-1079.17 -32.3902 0
-1077.9 -30.9651 0
-1076.59 -29.5235 0
-1075.25 -28.0623 0
-1073.86 -26.592 0
-1072.43 -25.1169 0
-1070.97 -23.6442 0
-1069.47 -22.177 0
-1067.94 -20.7155 0
-1066.38 -19.2696 0
-1064.79 -17.836 0
-1063.18 -16.4243 0
-1061.54 -15.0345 0
-1059.87 -13.6756 0
-1058.18 -12.3451 0
-1056.47 -11.0441 0
-1054.74 -9.77411 0
-1052.99 -8.54098 0
-1051.23 -7.34582 0
-1049.45 -6.18643 0
-1047.65 -5.06306 0
-1045.84 -3.98684 0
-1044.02 -2.94745 0
-1042.19 -1.95523 0
-1040.34 -1.00545 0
-1038.49 -0.0967492 0
-1036.63 0.766667 0
-1034.76 1.58988 0
-1032.89 2.36607 0
-1031.01 3.09358 0
-1029.13 3.77974 0
-1027.24 4.42177 0
-1025.35 5.01848 0
-1023.46 5.57328 0
-1021.57 6.08551 0
-1019.68 6.55412 0
-1017.78 6.98145 0
-1015.89 7.36441 0
-1014 7.70655 0
-1012.11 8.00977 0
-1010.22 8.27684 0
-1008.34 8.4998 0
-1006.46 8.68635 0
-1004.58 8.83726 0
-1002.71 8.95272 0
-1000.83 9.03413 0
-998.97 9.0805 0
-997.112 9.09251 0
-995.257 9.07755 0
-993.409 9.02946 0
-991.564 8.95348 0
-989.729 8.84552 0
-987.899 8.71401 0
-986.077 8.55346 0
-984.26 8.37036 0
-982.453 8.16866 0
-980.649 7.9423 0
-978.855 7.69223 0
-977.067 7.4232 0
-975.286 7.13789 0
-973.515 6.83203 0
-971.749 6.51057 0
-969.99 6.17269 0
-968.239 5.82291 0
-966.498 5.46243 0
-964.761 5.08804 0
-963.033 4.7037 0
-961.314 4.30863 0
-959.602 3.90863 0
-957.895 3.49943 0
-956.194 3.08592 0
-954.5 2.66985 0
-952.814 2.24488 0
-951.137 1.81896 0
-949.466 1.39263 0
-947.799 0.963648 0
-946.139 0.533909 0
-944.484 0.107389 0
-942.837 -0.315316 0
-941.193 -0.739427 0
-939.557 -1.15555 0
-937.922 -1.56844 0
-936.294 -1.98015 0
-934.674 -2.38651 0
-933.054 -2.78463 0
-931.441 -3.17767 0
-929.831 -3.56252 0
-928.224 -3.9414 0
-926.622 -4.30955 0
-925.023 -4.67126 0
-923.428 -5.02284 0
-921.836 -5.36147 0
-920.248 -5.69306 0
-918.661 -6.0133 0
-917.077 -6.32499 0
-915.495 -6.62443 0
-913.914 -6.91155 0
-912.335 -7.1895 0
-910.756 -7.45408 0
-909.18 -7.70643 0
-907.605 -7.94798 0
-906.033 -8.17953 0
-904.461 -8.39402 0
-902.889 -8.60253 0
-901.319 -8.7963 0
-899.749 -8.97504 0
-898.18 -9.14424 0
-896.607 -9.3021 0
-895.037 -9.44785 0
-893.469 -9.58162 0
-891.899 -9.70133 0
-890.327 -9.8118 0
-888.754 -9.91081 0
-887.182 -9.99888 0
-885.61 -10.0747 0
-884.034 -10.1373 0
-882.455 -10.1932 0
-880.881 -10.2401 0
-879.304 -10.2717 0
-877.725 -10.294 0
-876.143 -10.3103 0
-874.562 -10.3102 0
-872.982 -10.3079 0
-871.398 -10.2946 0
-869.811 -10.2743 0
-868.225 -10.2424 0
-866.636 -10.2058 0
-865.045 -10.1599 0
-863.453 -10.1072 0
-861.86 -10.0429 0
-860.261 -9.97672 0
-858.661 -9.90208 0
-857.062 -9.82236 0
-855.462 -9.73389 0
-853.858 -9.64445 0
-852.255 -9.54719 0
-850.646 -9.44593 0
-849.037 -9.33836 0
-847.425 -9.22978 0
-845.812 -9.1144 0
-844.198 -8.99672 0
-842.581 -8.87409 0
-840.963 -8.75149 0
-839.34 -8.62325 0
-837.719 -8.49634 0
-836.097 -8.3627 0
-834.469 -8.23057 0
-832.84 -8.09528 0
-831.211 -7.95791 0
-829.579 -7.82191 0
-827.947 -7.68277 0
-826.315 -7.54178 0
-824.679 -7.4025 0
-823.04 -7.26339 0
-821.4 -7.12571 0
-819.756 -6.98775 0
-818.114 -6.84512 0
-816.471 -6.71206 0
-814.829 -6.57446 0
-813.183 -6.4381 0
-811.535 -6.30339 0
-809.885 -6.17148 0
-808.237 -6.03867 0
-806.589 -5.91179 0
-804.933 -5.78338 0
-803.282 -5.65954 0
-801.627 -5.53593 0
-799.973 -5.41534 0
-798.315 -5.29586 0
-796.658 -5.18255 0
-795.003 -5.07072 0
-793.345 -4.95946 0
-791.688 -4.85159 0
-790.029 -4.74861 0
-788.368 -4.64675 0
-786.708 -4.54932 0
-785.047 -4.45651 0
-783.387 -4.36529 0
-781.727 -4.27633 0
-780.063 -4.1912 0
-778.4 -4.10717 0
-776.737 -4.02947 0
-775.073 -3.9571 0
-773.412 -3.8869 0
-771.747 -3.81869 0
-770.084 -3.757 0
-768.419 -3.69267 0
-766.75 -3.63604 0
-765.09 -3.58417 0
-763.426 -3.53009 0
-761.763 -3.48486 0
-760.099 -3.43992 0
-758.435 -3.39935 0
-756.771 -3.36134 0
-755.11 -3.32852 0
-753.448 -3.29886 0
-751.786 -3.27331 0
-750.125 -3.24807 0
-748.463 -3.22424 0
-746.8 -3.20943 0
-745.137 -3.19417 0
-743.479 -3.1811 0
-741.818 -3.17121 0
-740.158 -3.16429 0
-738.499 -3.15925 0
-736.836 -3.15739 0
-735.177 -3.15798 0
-733.519 -3.16168 0
-731.859 -3.16808 0
-730.201 -3.17718 0
-728.54 -3.18912 0
-726.88 -3.20051 0
-725.226 -3.21691 0
-723.573 -3.23713 0
-721.917 -3.25515 0
-720.262 -3.27665 0
-718.606 -3.29792 0
-716.954 -3.32738 0
-715.301 -3.34979 0
-713.646 -3.37808 0
-711.994 -3.40518 0
-710.342 -3.43936 0
-708.689 -3.4693 0
-707.038 -3.5034 0
-705.389 -3.53584 0
-703.74 -3.57345 0
-702.092 -3.60714 0
-700.443 -3.64868 0
-698.796 -3.68183 0
-697.146 -3.72627 0
-695.498 -3.76238 0
-693.853 -3.80333 0
-692.207 -3.84625 0
-690.563 -3.88627 0
-688.916 -3.9271 0
-687.272 -3.97317 0
-685.628 -4.01554 0
-683.985 -4.05793 0
-682.34 -4.09889 0
-680.702 -4.14187 0
-679.058 -4.18428 0
-677.418 -4.22716 0
-675.776 -4.26458 0
-674.134 -4.30481 0
-672.494 -4.34872 0
-670.856 -4.38658 0
-669.214 -4.43098 0
-667.575 -4.46913 0
-665.938 -4.514 0
-664.3 -4.55533 0
-662.659 -4.5928 0
-661.019 -4.62997 0
-659.385 -4.66788 0
-657.746 -4.70495 0
-656.109 -4.73876 0
-654.47 -4.77647 0
-652.834 -4.81359 0
-651.2 -4.84519 0
-649.559 -4.88187 0
-647.919 -4.91211 0
-646.281 -4.94757 0
-644.648 -4.97877 0
-643.01 -5.00824 0
-641.378 -5.03443 0
-639.743 -5.06384 0
-638.109 -5.09196 0
-636.471 -5.11848 0
-634.834 -5.13906 0
-633.2 -5.16518 0
-631.562 -5.1883 0
-629.926 -5.21347 0
-628.295 -5.23871 0
-626.659 -5.25631 0
-625.023 -5.27033 0
-623.388 -5.28974 0
-621.756 -5.30862 0
-620.122 -5.32646 0
-618.485 -5.33858 0
-616.85 -5.35117 0
-615.215 -5.3682 0
-613.58 -5.37568 0
-611.944 -5.38698 0
-610.304 -5.39599 0
-608.673 -5.40967 0
-607.039 -5.41936 0
-605.402 -5.42464 0
-603.768 -5.42788 0
-602.128 -5.43294 0
-600.496 -5.44058 0
-598.858 -5.44045 0
-597.224 -5.44449 0
-595.586 -5.44811 0
-593.951 -5.44958 0
-592.312 -5.45073 0
-590.676 -5.44834 0
-589.041 -5.44814 0
-587.403 -5.44572 0
-585.771 -5.43993 0
-584.132 -5.4348 0
-582.497 -5.42907 0
-580.856 -5.42862 0
-579.222 -5.42273 0
-577.584 -5.4194 0
-575.944 -5.41147 0
-574.306 -5.39996 0
-572.669 -5.39728 0
-571.034 -5.38433 0
-569.396 -5.37607 0
-567.756 -5.36484 0
-566.117 -5.35529 0
-564.477 -5.34756 0
-562.84 -5.33906 0
-561.2 -5.32408 0
-559.561 -5.30811 0
-557.922 -5.29639 0
-556.279 -5.28238 0
-554.641 -5.27339 0
-553.003 -5.2602 0
-551.362 -5.24509 0
-549.722 -5.23591 0
-548.084 -5.22554 0
-546.446 -5.20763 0
-544.803 -5.19182 0
-543.164 -5.17811 0
-541.523 -5.16619 0
-539.881 -5.15196 0
-538.242 -5.13651 0
-536.604 -5.12144 0
-534.962 -5.10348 0
-533.318 -5.08716 0
-531.678 -5.0714 0
-530.036 -5.05934 0
-528.393 -5.0451 0
-526.754 -5.03183 0
-525.109 -5.01802 0
-523.471 -5.00403 0
-521.828 -4.98812 0
-520.187 -4.97402 0
-518.545 -4.96185 0
-516.905 -4.94578 0
-515.262 -4.93141 0
-513.62 -4.91944 0
-511.973 -4.90321 0
-510.33 -4.89175 0
-508.688 -4.88382 0
-507.046 -4.86202 0
-505.405 -4.85467 0
-503.765 -4.8442 0
-502.121 -4.82965 0
-500.473 -4.82061 0
-498.831 -4.80525 0
-497.185 -4.79509 0
-495.544 -4.7838 0
-493.901 -4.77417 0
-492.254 -4.76017 0
-490.614 -4.75237 0
-488.969 -4.74214 0
-487.325 -4.73638 0
-485.68 -4.7274 0
-484.04 -4.71821 0
-482.397 -4.70781 0
-480.756 -4.70442 0
-479.114 -4.69578 0
-477.469 -4.68376 0
-475.829 -4.6827 0
-474.191 -4.67009 0
-472.548 -4.66333 0
-470.903 -4.65632 0
-469.258 -4.65189 0
-467.611 -4.64823 0
-465.968 -4.64266 0
-464.322 -4.63848 0
-462.682 -4.63289 0
-461.042 -4.62741 0
-459.396 -4.62557 0
-457.753 -4.62586 0
-456.114 -4.61682 0
-454.467 -4.61602 0
-452.831 -4.6157 0
-451.183 -4.61192 0
-449.539 -4.61166 0
-447.897 -4.60835 0
-446.254 -4.60691 0
-444.612 -4.61044 0
-442.968 -4.60209 0
-441.323 -4.60406 0
-439.682 -4.60317 0
-438.037 -4.60792 0
-436.398 -4.60471 0
-434.756 -4.60402 0
-433.112 -4.60618 0
-431.465 -4.60862 0
-429.824 -4.60443 0
-428.18 -4.60614 0
-426.535 -4.60327 0
-424.893 -4.60662 0
-423.248 -4.61655 0
-421.605 -4.61976 0
-419.966 -4.61703 0
-418.324 -4.62445 0
-416.682 -4.63199 0
-415.042 -4.62939 0
-413.401 -4.63621 0
-411.761 -4.63568 0
-410.117 -4.64046 0
-408.47 -4.64313 0
-406.826 -4.64397 0
-405.183 -4.65111 0
-403.542 -4.64987 0
-401.901 -4.65823 0
-400.258 -4.65837 0
-398.615 -4.66529 0
-396.969 -4.66945 0
-395.332 -4.67204 0
-393.689 -4.67524 0
-392.046 -4.67639 0
-390.403 -4.6831 0
-388.765 -4.68577 0
-387.122 -4.69183 0
-385.48 -4.69078 0
-383.838 -4.69558 0
-382.196 -4.70959 0
-380.553 -4.70929 0
-378.912 -4.714 0
-377.266 -4.72058 0
-375.628 -4.72477 0
-373.992 -4.72805 0
-372.35 -4.732 0
-370.706 -4.73721 0
-369.065 -4.74332 0
-367.428 -4.74828 0
-365.785 -4.75024 0
-364.14 -4.75887 0
-362.501 -4.76575 0
-360.863 -4.76355 0
-359.222 -4.77521 0
-357.579 -4.78172 0
-355.942 -4.78459 0
-354.304 -4.79286 0
-352.66 -4.79514 0
-351.017 -4.7991 0
-349.379 -4.80185 0
-347.739 -4.80476 0
-346.098 -4.8083 0
-344.458 -4.81641 0
-342.816 -4.8148 0
-341.174 -4.81912 0
-339.533 -4.82384 0
-337.899 -4.83093 0
-336.258 -4.83689 0
-334.612 -4.83397 0
-332.974 -4.83869 0
-331.332 -4.84238 0
-329.693 -4.84685 0
-328.058 -4.84475 0
-326.418 -4.85515 0
-324.783 -4.85666 0
-323.14 -4.86123 0
-321.496 -4.86384 0
-319.853 -4.86726 0
-318.212 -4.86956 0
-316.575 -4.87233 0
-314.938 -4.87663 0
-313.296 -4.87889 0
-311.66 -4.88493 0
-310.02 -4.88318 0
-308.379 -4.88565 0
-306.741 -4.89375 0
-305.099 -4.89805 0
-303.457 -4.89835 0
-301.819 -4.89399 0
-300.18 -4.89336 0
-298.539 -4.89492 0
-296.896 -4.89513 0
-295.257 -4.89876 0
-293.619 -4.90211 0
-291.978 -4.90214 0
-290.337 -4.90413 0
-288.697 -4.90656 0
-287.057 -4.91052 0
-285.415 -4.9084 0
-283.773 -4.90412 0
-282.13 -4.90928 0
-280.492 -4.91037 0
-278.852 -4.91431 0
-277.211 -4.91024 0
-275.571 -4.91473 0
-273.924 -4.91535 0
-272.276 -4.91811 0
-270.634 -4.92389 0
-269 -4.92497 0
-267.364 -4.9314 0
-265.723 -4.92387 0
-264.084 -4.92575 0
-262.444 -4.92632 0
-260.805 -4.92722 0
-259.162 -4.91784 0
-257.523 -4.9226 0
-255.884 -4.92135 0
-254.243 -4.9162 0
-252.602 -4.91757 0
-250.961 -4.91301 0
-249.32 -4.92142 0
-247.682 -4.91704 0
-246.045 -4.91703 0
-244.406 -4.91677 0
-242.767 -4.91525 0
-241.126 -4.91349 0
-239.484 -4.91241 0
-237.847 -4.91489 0
-236.199 -4.91243 0
-234.562 -4.91018 0
-232.924 -4.90968 0
-231.281 -4.91597 0
-229.638 -4.91425 0
-227.998 -4.90684 0
-226.357 -4.90882 0
-224.717 -4.90704 0
-223.074 -4.90671 0
-221.434 -4.90602 0
-219.797 -4.9005 0
-218.154 -4.89957 0
-216.517 -4.89698 0
-214.877 -4.90152 0
-213.234 -4.90005 0
-211.587 -4.8992 0
-209.951 -4.90068 0
-208.311 -4.89707 0
-206.671 -4.89565 0
-205.032 -4.89673 0
-203.388 -4.90136 0
-201.747 -4.89568 0
-200.113 -4.89366 0
-198.471 -4.89376 0
-196.83 -4.8961 0
-195.189 -4.89336 0
-193.546 -4.88893 0
-191.903 -4.88665 0
-190.267 -4.88312 0
-188.621 -4.88092 0
-186.984 -4.88357 0
-185.34 -4.88761 0
-183.7 -4.89026 0
-182.058 -4.88732 0
-180.42 -4.88281 0
-178.784 -4.88664 0
-177.138 -4.88732 0
-175.497 -4.88904 0
-173.856 -4.88449 0
-172.219 -4.88172 0
-170.581 -4.88081 0
-168.936 -4.87827 0
-167.298 -4.87695 0
-165.657 -4.88023 0
-164.021 -4.8758 0
-162.381 -4.87557 0
-160.74 -4.87764 0
-159.104 -4.87417 0
-157.463 -4.87162 0
-155.823 -4.87727 0
-154.177 -4.87594 0
-152.54 -4.87538 0
-150.895 -4.87525 0
-149.261 -4.8725 0
-147.622 -4.87299 0
-145.977 -4.87471 0
-144.334 -4.87711 0
-142.694 -4.87429 0
-141.048 -4.86587 0
-139.408 -4.86829 0
-137.772 -4.87061 0
-136.13 -4.87002 0
-134.492 -4.87086 0
-132.852 -4.86908 0
-131.209 -4.87275 0
-129.566 -4.87521 0
-127.925 -4.87145 0
-126.286 -4.87169 0
-124.649 -4.87805 0
-123.01 -4.87476 0
-121.374 -4.8724 0
-119.731 -4.868 0
-118.091 -4.87595 0
-116.455 -4.87509 0
-114.815 -4.87563 0
-113.168 -4.87729 0
-111.522 -4.87388 0
-109.883 -4.87831 0
-108.241 -4.88191 0
-106.605 -4.88592 0
-104.966 -4.88059 0
-103.324 -4.87475 0
-101.687 -4.88088 0
-100.047 -4.87726 0
-98.4079 -4.87694 0
-96.7663 -4.87715 0
-95.1194 -4.88191 0
-93.4824 -4.88247 0
-91.843 -4.88577 0
-90.2027 -4.87417 0
-88.5606 -4.88104 0
-86.9261 -4.87887 0
-85.2843 -4.87325 0
-83.6484 -4.87824 0
-82.0025 -4.8917 0
-80.3643 -4.8815 0
-78.7265 -4.88045 0
-77.0814 -4.87715 0
-75.4393 -4.88196 0
-73.793 -4.88238 0
-72.1573 -4.88544 0
-70.5218 -4.87934 0
-68.881 -4.88996 0
-67.2358 -4.8809 0
-65.5882 -4.87779 0
-63.9428 -4.87428 0
-62.3052 -4.87639 0
-60.6689 -4.88357 0
-59.0325 -4.8844 0
-57.3986 -4.88049 0
-55.7597 -4.88164 0
-54.1144 -4.87638 0
-52.4762 -4.8834 0
-50.8372 -4.88752 0
-49.1931 -4.88903 0
-47.5522 -4.88847 0
-45.9075 -4.88745 0
-44.2666 -4.88925 0
-42.6277 -4.88725 0
-40.9909 -4.8816 0
-39.3462 -4.88445 0
-37.7148 -4.88331 0
-36.0719 -4.88153 0
-34.4329 -4.87684 0
-32.7945 -4.88611 0
-31.1479 -4.88853 0
-29.5182 -4.88645 0
-27.8758 -4.8829 0
-26.2378 -4.88797 0
-24.5974 -4.88928 0
-22.9558 -4.88234 0
-21.318 -4.8877 0
-19.6783 -4.8821 0
-18.0345 -4.88471 0
-16.3991 -4.8836 0
-14.7578 -4.88222 0
-13.1166 -4.88884 0
-11.4781 -4.89268 0
-9.83972 -4.88907 0
-8.20079 -4.88868 0
-6.56032 -4.88878 0
-4.91897 -4.8847 0
-3.27962 -4.88684 0
-1.64204 -4.88693 0
0 -4.89215 0
-1095.2 126.497 0
-1095.42 115.112 0
-1095.64 103.878 0
-1095.83 92.8602 0
-1096.02 82.0977 0
-1096.16 71.6175 0
-1096.27 61.5069 0
-1096.35 51.8461 0
-1096.42 42.6836 0
-1096.47 34.0373 0
-1096.48 25.9538 0
-1096.46 18.4239 0
-1096.38 11.485 0
-1096.25 5.14559 0
-1096.15 -0.636645 0
-1096.1 -6.04728 0
-1096.02 -11.1455 0
-1095.94 -15.9059 0
-1095.81 -20.3159 0
-1095.65 -24.3355 0
-1095.47 -27.9423 0
-1095.29 -31.1544 0
-1095.08 -33.9861 0
-1094.85 -36.4403 0
-1094.6 -38.5261 0
-1094.31 -40.27 0
-1094 -41.6948 0
-1093.64 -42.8158 0
-1093.25 -43.6668 0
-1092.8 -44.2694 0
-1092.31 -44.6345 0
-1091.77 -44.7864 0
-1091.18 -44.7414 0
-1090.55 -44.5144 0
-1089.85 -44.12 0
-1089.11 -43.5831 0
-1088.32 -42.9024 0
-1087.48 -42.1006 0
-1086.58 -41.1853 0
-1085.64 -40.1698 0
-1084.65 -39.0656 0
-1083.62 -37.8881 0
-1082.54 -36.6386 0
-1081.41 -35.3269 0
-1080.24 -33.969 0
-1079.03 -32.5701 0
-1077.78 -31.1367 0
-1076.49 -29.6739 0
-1075.16 -28.1904 0
-1073.8 -26.6924 0
-1072.4 -25.1857 0
-1070.97 -23.6777 0
-1069.51 -22.17 0
-1068.02 -20.6716 0
-1066.51 -19.1802 0
-1064.96 -17.7047 0
-1063.39 -16.2462 0
-1061.8 -14.8104 0
-1060.18 -13.3984 0
-1058.54 -12.0137 0
-1056.88 -10.6643 0
-1055.2 -9.34342 0
-1053.5 -8.05739 0
-1051.79 -6.80519 0
-1050.06 -5.59506 0
-1048.32 -4.41976 0
-1046.56 -3.28621 0
-1044.79 -2.19631 0
-1043.01 -1.14752 0
-1041.23 -0.14458 0
-1039.42 0.815084 0
-1037.62 1.72996 0
-1035.8 2.60456 0
-1033.98 3.42907 0
-1032.15 4.21092 0
-1030.32 4.94621 0
-1028.48 5.63406 0
-1026.63 6.27829 0
-1024.79 6.88005 0
-1022.94 7.4324 0
-1021.09 7.94737 0
-1019.24 8.41706 0
-1017.39 8.84441 0
-1015.53 9.2272 0
-1013.68 9.56833 0
-1011.83 9.86807 0
-1009.98 10.1318 0
-1008.14 10.3539 0
-1006.29 10.5359 0
-1004.45 10.6853 0
-1002.61 10.7975 0
-1000.78 10.8721 0
-998.943 10.9138 0
-997.115 10.9232 0
-995.291 10.9014 0
-993.471 10.8498 0
-991.657 10.7663 0
-989.848 10.6559 0
-988.046 10.5148 0
-986.25 10.3504 0
-984.456 10.1606 0
-982.669 9.9521 0
-980.887 9.71924 0
-979.113 9.46371 0
-977.345 9.18839 0
-975.584 8.89283 0
-973.827 8.58304 0
-972.077 8.25276 0
-970.333 7.90995 0
-968.594 7.55345 0
-966.865 7.18515 0
-965.139 6.80502 0
-963.421 6.41222 0
-961.709 6.01012 0
-960.003 5.60273 0
-958.302 5.18954 0
-956.606 4.76906 0
-954.917 4.34562 0
-953.237 3.91509 0
-951.561 3.48362 0
-949.89 3.05024 0
-948.224 2.6179 0
-946.562 2.18278 0
-944.906 1.74924 0
-943.256 1.3211 0
-941.61 0.89344 0
-939.968 0.470361 0
-938.332 0.0550981 0
-936.699 -0.363709 0
-935.072 -0.772022 0
-933.448 -1.1765 0
-931.826 -1.57249 0
-930.208 -1.96123 0
-928.594 -2.34202 0
-926.984 -2.71465 0
-925.376 -3.0776 0
-923.771 -3.4322 0
-922.171 -3.77544 0
-920.571 -4.10926 0
-918.973 -4.43229 0
-917.379 -4.74573 0
-915.786 -5.04664 0
-914.194 -5.33661 0
-912.604 -5.61321 0
-911.013 -5.87958 0
-909.424 -6.13603 0
-907.84 -6.37759 0
-906.255 -6.60958 0
-904.67 -6.82647 0
-903.087 -7.03307 0
-901.504 -7.22911 0
-899.921 -7.40844 0
-898.34 -7.57692 0
-896.758 -7.73513 0
-895.174 -7.88084 0
-893.593 -8.01386 0
-892.011 -8.13511 0
-890.427 -8.24267 0
-888.847 -8.34283 0
-887.263 -8.42918 0
-885.677 -8.50361 0
-884.092 -8.5661 0
-882.507 -8.62152 0
-880.918 -8.66659 0
-879.331 -8.69833 0
-877.744 -8.71978 0
-876.154 -8.73227 0
-874.563 -8.73474 0
-872.972 -8.72866 0
-871.378 -8.71499 0
-869.785 -8.69215 0
-868.189 -8.66082 0
-866.593 -8.62068 0
-864.994 -8.57369 0
-863.395 -8.51863 0
-861.794 -8.45347 0
-860.191 -8.38339 0
-858.587 -8.30971 0
-856.98 -8.22678 0
-855.374 -8.13998 0
-853.765 -8.04609 0
-852.155 -7.94762 0
-850.542 -7.84438 0
-848.928 -7.73606 0
-847.313 -7.62447 0
-845.696 -7.50905 0
-844.08 -7.39083 0
-842.457 -7.26427 0
-840.837 -7.1398 0
-839.215 -7.01205 0
-837.59 -6.88153 0
-835.964 -6.74622 0
-834.336 -6.61238 0
-832.706 -6.47444 0
-831.074 -6.33535 0
-829.442 -6.19944 0
-827.81 -6.05839 0
-826.175 -5.91676 0
-824.538 -5.77523 0
-822.9 -5.6333 0
-821.261 -5.49469 0
-819.621 -5.35488 0
-817.979 -5.21635 0
-816.338 -5.07738 0
-814.693 -4.9386 0
-813.048 -4.80262 0
-811.402 -4.66506 0
-809.756 -4.53287 0
-808.11 -4.39963 0
-806.458 -4.27176 0
-804.809 -4.14207 0
-803.158 -4.01738 0
-801.507 -3.89168 0
-799.854 -3.77145 0
-798.202 -3.65252 0
-796.549 -3.53678 0
-794.894 -3.42434 0
-793.241 -3.31293 0
-791.585 -3.20376 0
-789.927 -3.10043 0
-788.272 -2.99806 0
-786.614 -2.89935 0
-784.956 -2.80589 0
-783.298 -2.71596 0
-781.638 -2.62493 0
-779.98 -2.53974 0
-778.321 -2.45583 0
-776.66 -2.37921 0
-775.001 -2.30613 0
-773.343 -2.23412 0
-771.683 -2.16778 0
-770.022 -2.10233 0
-768.361 -2.04002 0
-766.699 -1.98359 0
-765.038 -1.93057 0
-763.378 -1.87915 0
-761.719 -1.8311 0
-760.058 -1.78832 0
-758.397 -1.74715 0
-756.737 -1.7115 0
-755.079 -1.67862 0
-753.42 -1.64904 0
-751.762 -1.62229 0
-750.102 -1.59617 0
-748.444 -1.57431 0
-746.784 -1.55726 0
-745.124 -1.54436 0
-743.466 -1.53184 0
-741.81 -1.5217 0
-740.152 -1.51531 0
-738.495 -1.51136 0
-736.837 -1.50814 0
-735.181 -1.50759 0
-733.523 -1.51469 0
-731.865 -1.5183 0
-730.21 -1.53033 0
-728.552 -1.54099 0
-726.898 -1.55512 0
-725.243 -1.57197 0
-723.59 -1.59098 0
-721.934 -1.61047 0
-720.283 -1.63245 0
-718.632 -1.65562 0
-716.977 -1.68206 0
-715.325 -1.70713 0
-713.673 -1.73465 0
-712.023 -1.766 0
-710.374 -1.79724 0
-708.724 -1.82815 0
-707.075 -1.86181 0
-705.424 -1.89811 0
-703.777 -1.93337 0
-702.129 -1.97139 0
-700.48 -2.00854 0
-698.831 -2.04778 0
-697.186 -2.08647 0
-695.536 -2.12672 0
-693.891 -2.16741 0
-692.247 -2.21124 0
-690.601 -2.24966 0
-688.96 -2.29273 0
-687.317 -2.33776 0
-685.673 -2.38136 0
-684.028 -2.42222 0
-682.386 -2.46595 0
-680.743 -2.50963 0
-679.101 -2.55207 0
-677.458 -2.59388 0
-675.817 -2.63228 0
-674.177 -2.67384 0
-672.536 -2.71436 0
-670.895 -2.75761 0
-669.254 -2.80049 0
-667.616 -2.84201 0
-665.977 -2.88507 0
-664.335 -2.92557 0
-662.697 -2.96294 0
-661.06 -3.00001 0
-659.421 -3.03897 0
-657.783 -3.07523 0
-656.144 -3.11214 0
-654.507 -3.14993 0
-652.869 -3.18499 0
-651.231 -3.21993 0
-649.591 -3.25284 0
-647.955 -3.28485 0
-646.318 -3.32036 0
-644.679 -3.35067 0
-643.041 -3.37965 0
-641.406 -3.41056 0
-639.772 -3.43825 0
-638.135 -3.46462 0
-636.498 -3.4904 0
-634.86 -3.5149 0
-633.222 -3.53824 0
-631.589 -3.56371 0
-629.95 -3.58754 0
-628.313 -3.61127 0
-626.677 -3.62646 0
-625.042 -3.64368 0
-623.408 -3.66357 0
-621.771 -3.682 0
-620.135 -3.69817 0
-618.499 -3.71216 0
-616.864 -3.72606 0
-615.228 -3.74004 0
-613.592 -3.74926 0
-611.954 -3.75996 0
-610.321 -3.77075 0
-608.684 -3.78286 0
-607.048 -3.78981 0
-605.409 -3.7978 0
-603.772 -3.80036 0
-602.136 -3.80655 0
-600.499 -3.81197 0
-598.864 -3.81423 0
-597.227 -3.8179 0
-595.587 -3.82274 0
-593.95 -3.82335 0
-592.314 -3.82111 0
-590.678 -3.82304 0
-589.041 -3.82157 0
-587.402 -3.81773 0
-585.764 -3.81399 0
-584.129 -3.80733 0
-582.491 -3.80336 0
-580.854 -3.80033 0
-579.215 -3.79602 0
-577.576 -3.78746 0
-575.935 -3.78281 0
-574.301 -3.77298 0
-572.661 -3.76668 0
-571.024 -3.75492 0
-569.387 -3.74564 0
-567.748 -3.73608 0
-566.109 -3.72628 0
-564.47 -3.71865 0
-562.829 -3.70587 0
-561.185 -3.69352 0
-559.548 -3.68123 0
-557.908 -3.66533 0
-556.268 -3.65396 0
-554.629 -3.64484 0
-552.989 -3.62864 0
-551.351 -3.61595 0
-549.714 -3.60519 0
-548.073 -3.59458 0
-546.43 -3.57751 0
-544.789 -3.56341 0
-543.151 -3.54606 0
-541.508 -3.5346 0
-539.868 -3.52029 0
-538.227 -3.5052 0
-536.585 -3.48938 0
-534.943 -3.47185 0
-533.302 -3.45581 0
-531.663 -3.44137 0
-530.022 -3.42533 0
-528.38 -3.41274 0
-526.737 -3.39776 0
-525.098 -3.38358 0
-523.455 -3.37129 0
-521.816 -3.35759 0
-520.173 -3.34221 0
-518.534 -3.33029 0
-516.891 -3.31368 0
-515.246 -3.29872 0
-513.606 -3.28429 0
-511.96 -3.26801 0
-510.321 -3.25762 0
-508.677 -3.24392 0
-507.035 -3.23401 0
-505.391 -3.22306 0
-503.748 -3.20903 0
-502.107 -3.19579 0
-500.465 -3.18571 0
-498.82 -3.17298 0
-497.178 -3.1591 0
-495.534 -3.15024 0
-493.891 -3.13768 0
-492.246 -3.12574 0
-490.602 -3.11593 0
-488.958 -3.10866 0
-487.317 -3.10253 0
-485.674 -3.09562 0
-484.032 -3.08475 0
-482.391 -3.07435 0
-480.749 -3.0692 0
-479.107 -3.05974 0
-477.466 -3.05029 0
-475.824 -3.0485 0
-474.183 -3.0389 0
-472.541 -3.02715 0
-470.896 -3.02048 0
-469.256 -3.01806 0
-467.611 -3.0123 0
-465.966 -3.00448 0
-464.321 -3.00363 0
-462.678 -2.99805 0
-461.038 -2.99558 0
-459.396 -2.98988 0
-457.75 -2.99121 0
-456.108 -2.9862 0
-454.468 -2.98356 0
-452.821 -2.98304 0
-451.18 -2.97804 0
-449.541 -2.97623 0
-447.896 -2.97607 0
-446.258 -2.97594 0
-444.609 -2.97294 0
-442.964 -2.97027 0
-441.324 -2.96947 0
-439.679 -2.97011 0
-438.04 -2.97283 0
-436.396 -2.97197 0
-434.752 -2.97464 0
-433.109 -2.97477 0
-431.464 -2.97589 0
-429.819 -2.97255 0
-428.178 -2.97223 0
-426.536 -2.97133 0
-424.895 -2.97254 0
-423.253 -2.9824 0
-421.606 -2.98418 0
-419.967 -2.98931 0
-418.329 -2.99011 0
-416.686 -2.99663 0
-415.041 -3.00064 0
-413.4 -3.00469 0
-411.759 -3.00224 0
-410.116 -3.00497 0
-408.474 -3.00662 0
-406.83 -3.01247 0
-405.187 -3.0161 0
-403.544 -3.01954 0
-401.9 -3.02133 0
-400.259 -3.02734 0
-398.616 -3.0332 0
-396.971 -3.03894 0
-395.332 -3.04507 0
-393.692 -3.04541 0
-392.051 -3.04777 0
-390.409 -3.04659 0
-388.769 -3.05512 0
-387.123 -3.05687 0
-385.481 -3.06154 0
-383.843 -3.06655 0
-382.2 -3.07509 0
-380.561 -3.07841 0
-378.919 -3.07782 0
-377.279 -3.08851 0
-375.633 -3.09507 0
-373.994 -3.09849 0
-372.349 -3.09855 0
-370.711 -3.10613 0
-369.069 -3.11165 0
-367.43 -3.11709 0
-365.789 -3.12184 0
-364.147 -3.12535 0
-362.505 -3.13384 0
-360.864 -3.13769 0
-359.227 -3.14117 0
-357.59 -3.14554 0
-355.948 -3.15403 0
-354.309 -3.15894 0
-352.662 -3.16156 0
-351.022 -3.16737 0
-349.382 -3.17047 0
-347.741 -3.17268 0
-346.103 -3.17613 0
-344.464 -3.18144 0
-342.822 -3.18358 0
-341.18 -3.18931 0
-339.539 -3.19391 0
-337.902 -3.19656 0
-336.26 -3.20257 0
-334.617 -3.20742 0
-332.977 -3.20607 0
-331.339 -3.21231 0
-329.699 -3.21593 0
-328.059 -3.21572 0
-326.421 -3.22502 0
-324.782 -3.22486 0
-323.143 -3.22751 0
-321.501 -3.23324 0
-319.863 -3.23403 0
-318.223 -3.23948 0
-316.583 -3.24471 0
-314.945 -3.24743 0
-313.302 -3.2503 0
-311.66 -3.24719 0
-310.021 -3.25426 0
-308.382 -3.25458 0
-306.739 -3.26065 0
-305.098 -3.26647 0
-303.457 -3.26365 0
-301.816 -3.26479 0
-300.176 -3.26517 0
-298.538 -3.26489 0
-296.895 -3.26319 0
-295.257 -3.26791 0
-293.619 -3.27251 0
-291.978 -3.27017 0
-290.337 -3.27053 0
-288.696 -3.27267 0
-287.056 -3.27691 0
-285.414 -3.27267 0
-283.775 -3.27655 0
-282.131 -3.27546 0
-280.492 -3.27765 0
-278.851 -3.27996 0
-277.209 -3.28312 0
-275.569 -3.28375 0
-273.926 -3.28347 0
-272.281 -3.28881 0
-270.643 -3.2941 0
-269.005 -3.29967 0
-267.362 -3.29619 0
-265.723 -3.29456 0
-264.081 -3.29366 0
-262.443 -3.29478 0
-260.802 -3.29281 0
-259.159 -3.28987 0
-257.523 -3.28942 0
-255.881 -3.29093 0
-254.239 -3.28486 0
-252.602 -3.28733 0
-250.962 -3.28349 0
-249.321 -3.28938 0
-247.679 -3.2908 0
-246.041 -3.28727 0
-244.403 -3.28684 0
-242.764 -3.28331 0
-241.124 -3.28324 0
-239.482 -3.28366 0
-237.844 -3.28318 0
-236.2 -3.28383 0
-234.561 -3.28119 0
-232.919 -3.28406 0
-231.277 -3.28004 0
-229.637 -3.27984 0
-227.993 -3.27543 0
-226.357 -3.27755 0
-224.714 -3.2767 0
-223.077 -3.27822 0
-221.433 -3.27648 0
-219.795 -3.27175 0
-218.156 -3.27051 0
-216.516 -3.26873 0
-214.871 -3.26907 0
-213.231 -3.2664 0
-211.591 -3.26744 0
-209.95 -3.26952 0
-208.314 -3.26722 0
-206.671 -3.26292 0
-205.031 -3.26346 0
-203.389 -3.26526 0
-201.749 -3.26357 0
-200.108 -3.26329 0
-198.47 -3.2652 0
-196.826 -3.26576 0
-195.185 -3.26293 0
-193.544 -3.25903 0
-191.906 -3.25522 0
-190.265 -3.25347 0
-188.625 -3.25134 0
-186.982 -3.25388 0
-185.342 -3.25648 0
-183.7 -3.25502 0
-182.06 -3.25213 0
-180.421 -3.2554 0
-178.778 -3.25783 0
-177.136 -3.25516 0
-175.5 -3.2539 0
-173.857 -3.25047 0
-172.214 -3.25099 0
-170.576 -3.24839 0
-168.937 -3.24808 0
-167.299 -3.24548 0
-165.659 -3.24952 0
-164.018 -3.24649 0
-162.38 -3.2454 0
-160.742 -3.24673 0
-159.1 -3.24145 0
-157.459 -3.2387 0
-155.817 -3.24364 0
-154.176 -3.24712 0
-152.539 -3.24299 0
-150.9 -3.24432 0
-149.261 -3.24286 0
-147.616 -3.23868 0
-145.975 -3.24581 0
-144.334 -3.24415 0
-142.69 -3.24254 0
-141.05 -3.23878 0
-139.41 -3.23855 0
-137.771 -3.24152 0
-136.131 -3.23961 0
-134.493 -3.23891 0
-132.852 -3.2357 0
-131.209 -3.24023 0
-129.572 -3.24504 0
-127.93 -3.23983 0
-126.289 -3.24126 0
-124.651 -3.24353 0
-123.007 -3.24558 0
-121.369 -3.24171 0
-119.736 -3.24007 0
-118.094 -3.24257 0
-116.453 -3.24523 0
-114.812 -3.24606 0
-113.169 -3.24461 0
-111.526 -3.24209 0
-109.888 -3.24717 0
-108.246 -3.24924 0
-106.607 -3.25417 0
-104.961 -3.25042 0
-103.326 -3.24662 0
-101.685 -3.25001 0
-100.043 -3.24885 0
-98.4037 -3.24708 0
-96.7667 -3.24644 0
-95.1225 -3.24804 0
-93.4831 -3.25156 0
-91.8451 -3.24915 0
-90.2004 -3.24795 0
-88.5646 -3.24775 0
-86.9233 -3.24714 0
-85.2838 -3.24539 0
-83.6427 -3.24933 0
-82.002 -3.2552 0
-80.3582 -3.2512 0
-78.7207 -3.24729 0
-77.0794 -3.2485 0
-75.4391 -3.24813 0
-73.8014 -3.25003 0
-72.157 -3.25532 0
-70.5182 -3.25285 0
-68.8764 -3.25522 0
-67.236 -3.25098 0
-65.5929 -3.24514 0
-63.9512 -3.24917 0
-62.3161 -3.25107 0
-60.6758 -3.2533 0
-59.0345 -3.25702 0
-57.3943 -3.25552 0
-55.7561 -3.25186 0
-54.1156 -3.24725 0
-52.4777 -3.25035 0
-50.8337 -3.25738 0
-49.196 -3.25855 0
-47.5505 -3.25578 0
-45.9066 -3.25682 0
-44.2703 -3.25585 0
-42.6299 -3.25644 0
-40.9925 -3.25395 0
-39.3531 -3.25156 0
-37.7086 -3.25498 0
-36.0725 -3.24968 0
-34.4304 -3.24978 0
-32.7932 -3.25424 0
-31.1581 -3.25771 0
-29.514 -3.2555 0
-27.8765 -3.25161 0
-26.236 -3.25864 0
-24.5935 -3.25576 0
-22.9584 -3.2539 0
-21.3188 -3.25683 0
-19.6773 -3.25321 0
-18.0371 -3.2549 0
-16.3983 -3.25574 0
-14.7629 -3.25421 0
-13.1189 -3.25757 0
-11.4779 -3.26012 0
-9.83441 -3.2611 0
-8.19774 -3.26035 0
-6.55792 -3.25465 0
-4.91906 -3.25391 0
-3.27895 -3.25325 0
-1.63982 -3.25998 0
0 -3.25799 0
-1106.8 127.187 0
-1106.62 115.604 0
-1106.61 104.372 0
-1106.56 93.3648 0
-1106.45 82.6221 0
-1106.27 72.1742 0
-1106 62.0868 0
-1105.67 52.4323 0
-1105.27 43.2643 0
-1104.83 34.6218 0
-1104.33 26.5378 0
-1103.78 19.0255 0
-1103.19 12.0982 0
-1102.59 5.73208 0
-1102.05 -0.155717 0
-1101.56 -5.6261 0
-1101.11 -10.7187 0
-1100.65 -15.4779 0
-1100.15 -19.8651 0
-1099.62 -23.8752 0
-1099.06 -27.4834 0
-1098.49 -30.6953 0
-1097.9 -33.5218 0
-1097.3 -35.9697 0
-1096.69 -38.0447 0
-1096.07 -39.7767 0
-1095.44 -41.1839 0
-1094.79 -42.2905 0
-1094.13 -43.1111 0
-1093.43 -43.6784 0
-1092.71 -44.0091 0
-1091.96 -44.122 0
-1091.18 -44.0386 0
-1090.36 -43.7688 0
-1089.51 -43.3348 0
-1088.62 -42.7507 0
-1087.69 -42.0271 0
-1086.73 -41.1824 0
-1085.72 -40.2243 0
-1084.68 -39.1682 0
-1083.61 -38.0224 0
-1082.5 -36.8016 0
-1081.35 -35.5085 0
-1080.16 -34.1594 0
-1078.94 -32.7611 0
-1077.69 -31.3271 0
-1076.41 -29.8554 0
-1075.09 -28.3577 0
-1073.74 -26.8398 0
-1072.37 -25.3108 0
-1070.96 -23.7734 0
-1069.53 -22.2376 0
-1068.07 -20.7013 0
-1066.58 -19.175 0
-1065.08 -17.659 0
-1063.55 -16.1593 0
-1061.99 -14.6763 0
-1060.42 -13.2182 0
-1058.82 -11.7859 0
-1057.21 -10.3825 0
-1055.58 -9.01267 0
-1053.93 -7.67644 0
-1052.27 -6.37361 0
-1050.6 -5.10852 0
-1048.9 -3.88168 0
-1047.2 -2.69425 0
-1045.48 -1.54805 0
-1043.75 -0.447321 0
-1042.02 0.60957 0
-1040.27 1.62444 0
-1038.51 2.5919 0
-1036.74 3.51463 0
-1034.97 4.3931 0
-1033.19 5.22814 0
-1031.41 6.01436 0
-1029.62 6.75166 0
-1027.82 7.44631 0
-1026.02 8.09291 0
-1024.22 8.69776 0
-1022.41 9.2547 0
-1020.61 9.76694 0
-1018.8 10.2393 0
-1016.99 10.6674 0
-1015.17 11.0492 0
-1013.36 11.3913 0
-1011.55 11.6895 0
-1009.74 11.9499 0
-1007.93 12.1719 0
-1006.12 12.3536 0
-1004.32 12.4993 0
-1002.51 12.6068 0
-1000.71 12.6786 0
-998.914 12.7171 0
-997.116 12.7229 0
-995.323 12.6955 0
-993.534 12.6403 0
-991.748 12.5532 0
-989.966 12.4363 0
-988.187 12.2927 0
-986.416 12.1221 0
-984.647 11.9286 0
-982.881 11.7125 0
-981.122 11.475 0
-979.368 11.214 0
-977.62 10.9329 0
-975.873 10.6332 0