<?xml version="1.0"?>
<VTKFile type="StructuredGrid"  version="0.1" byte_order="LittleEndian" compressor="vtkZLibDataCompressor">
  <StructuredGrid WholeExtent="0 700 0 30 0 0">
    <Piece Extent="0 700 0 30 0 0">
      <PointData Vectors="Velocity">
        <DataArray type="Float32" Name="Velocity" NumberOfComponents="3" format="ascii">
-1054.79 88.3714 0
-1055.25 79.0456 0
-1055.77 69.8538 0
-1056.3 60.8772 0
-1056.86 52.1647 0
-1057.47 43.7908 0
-1058.12 35.8378 0
-1058.78 28.3585 0
-1059.44 21.3823 0
-1060.08 14.9259 0
-1060.69 9.01233 0
-1061.25 3.66107 0
-1061.73 -1.11802 0
-1062.09 -5.3939 0
-1062.27 -9.35154 0
-1062.53 -13.0661 0
-1062.76 -16.4656 0
-1063.01 -19.4909 0
-1063.24 -22.1322 0
-1063.44 -24.3928 0
-1063.6 -26.2868 0
-1063.71 -27.8334 0
-1063.77 -29.0549 0
-1063.76 -29.9773 0
-1063.68 -30.6285 0
-1063.52 -31.0376 0
-1063.28 -31.2263 0
-1062.97 -31.2186 0
-1062.57 -31.0335 0
-1062.1 -30.6965 0
-1061.56 -30.2171 0
-1060.94 -29.6156 0
-1060.24 -28.9046 0
-1059.48 -28.1017 0
-1058.65 -27.2187 0
-1057.76 -26.2653 0
-1056.8 -25.2554 0
-1055.78 -24.1984 0
-1054.71 -23.103 0
-1053.58 -21.9792 0
-1052.4 -20.8329 0
-1051.17 -19.6735 0
-1049.9 -18.5093 0
-1048.58 -17.3409 0
-1047.22 -16.1786 0
-1045.82 -15.0283 0
-1044.38 -13.8925 0
-1042.91 -12.7752 0
-1041.41 -11.6825 0
-1039.88 -10.614 0
-1038.32 -9.57568 0
-1036.73 -8.56699 0
-1035.13 -7.59271 0
-1033.5 -6.65404 0
-1031.84 -5.75249 0
-1030.18 -4.89024 0
-1028.49 -4.06676 0
-1026.79 -3.28531 0
-1025.07 -2.54472 0
-1023.35 -1.84781 0
-1021.61 -1.1914 0
-1019.86 -0.578708 0
-1018.1 -0.00763136 0
-1016.34 0.520415 0
-1014.57 1.00725 0
-1012.8 1.45411 0
-1011.02 1.85905 0
-1009.24 2.2206 0
-1007.45 2.54333 0
-1005.67 2.83 0
-1003.88 3.07637 0
-1002.09 3.28632 0
-1000.31 3.45967 0
-998.528 3.59996 0
-996.748 3.70503 0
-994.971 3.77887 0
-993.198 3.8198 0
-991.428 3.83385 0
-989.661 3.81594 0
-987.902 3.7723 0
-986.145 3.70224 0
-984.394 3.60797 0
-982.65 3.49055 0
-980.911 3.35085 0
-979.18 3.18965 0
-977.457 3.00778 0
-975.739 2.81053 0
-974.028 2.59675 0
-972.323 2.36667 0
-970.626 2.12431 0
-968.935 1.86972 0
-967.253 1.60382 0
-965.578 1.32687 0
-963.909 1.04151 0
-962.248 0.747096 0
-960.594 0.447634 0
-958.948 0.145027 0
-957.309 -0.16361 0
-955.675 -0.474641 0
-954.049 -0.787798 0
-952.428 -1.10026 0
-950.814 -1.41398 0
-949.204 -1.72484 0
-947.602 -2.03515 0
-946.005 -2.34243 0
-944.414 -2.64549 0
-942.829 -2.94408 0
-941.247 -3.23776 0
-939.673 -3.52617 0
-938.103 -3.80836 0
-936.537 -4.08149 0
-934.974 -4.34754 0
-933.413 -4.60523 0
-931.856 -4.85471 0
-930.303 -5.09734 0
-928.753 -5.32934 0
-927.207 -5.55097 0
-925.66 -5.76523 0
-924.118 -5.96743 0
-922.576 -6.1584 0
-921.038 -6.34009 0
-919.501 -6.5121 0
-917.965 -6.67261 0
-916.429 -6.82043 0
-914.896 -6.95715 0
-913.36 -7.08618 0
-911.827 -7.20055 0
-910.293 -7.30894 0
-908.76 -7.40501 0
-907.227 -7.49067 0
-905.693 -7.56559 0
-904.159 -7.63085 0
-902.626 -7.68589 0
-901.089 -7.73292 0
-899.553 -7.76887 0
-898.016 -7.79652 0
-896.478 -7.81395 0
-894.937 -7.82456 0
-893.397 -7.82657 0
-891.855 -7.81906 0
-890.312 -7.80463 0
-888.768 -7.78313 0
-887.219 -7.7547 0
-885.671 -7.71863 0
-884.122 -7.678 0
-882.571 -7.62878 0
-881.018 -7.57493 0
-879.463 -7.51551 0
-877.905 -7.45164 0
-876.347 -7.38353 0
-874.785 -7.31064 0
-873.222 -7.23047 0
-871.658 -7.15075 0
-870.091 -7.06832 0
-868.523 -6.98174 0
-866.953 -6.88867 0
-865.379 -6.7982 0
-863.807 -6.70406 0
-862.231 -6.61037 0
-860.654 -6.51266 0
-859.074 -6.41439 0
-857.494 -6.31358 0
-855.911 -6.21444 0
-854.327 -6.11498 0
-852.742 -6.01614 0
-851.155 -5.91729 0
-849.565 -5.81559 0
-847.974 -5.71543 0
-846.383 -5.61989 0
-844.791 -5.5246 0
-843.197 -5.42711 0
-841.603 -5.33328 0
-840.006 -5.24066 0
-838.407 -5.14748 0
-836.807 -5.05969 0
-835.208 -4.97454 0
-833.607 -4.89063 0
-832.007 -4.80802 0
-830.406 -4.72837 0
-828.801 -4.64913 0
-827.198 -4.57423 0
-825.592 -4.50665 0
-823.987 -4.43624 0
-822.383 -4.36852 0
-820.775 -4.30619 0
-819.169 -4.24496 0
-817.563 -4.18697 0
-815.955 -4.13462 0
-814.348 -4.08186 0
-812.743 -4.03367 0
-811.133 -3.98488 0
-809.527 -3.94497 0
-807.918 -3.90771 0
-806.311 -3.87049 0
-804.701 -3.83957 0
-803.092 -3.80676 0
-801.483 -3.78109 0
-799.875 -3.75846 0
-798.268 -3.73529 0
-796.659 -3.7182 0
-795.054 -3.70255 0
-793.447 -3.68975 0
-791.84 -3.67969 0
-790.231 -3.6706 0
-788.626 -3.66374 0
-787.02 -3.66078 0
-785.412 -3.66297 0
-783.808 -3.66536 0
-782.203 -3.66972 0
-780.601 -3.67723 0
-778.995 -3.68748 0
-777.393 -3.69685 0
-775.79 -3.70995 0
-774.189 -3.72392 0
-772.586 -3.73975 0
-770.982 -3.75915 0
-769.381 -3.77788 0
-767.782 -3.7967 0
-766.181 -3.81789 0
-764.58 -3.83996 0
-762.98 -3.86601 0
-761.383 -3.89242 0
-759.785 -3.92177 0
-758.189 -3.94899 0
-756.591 -3.97907 0
-754.995 -4.00504 0
-753.399 -4.03545 0
-751.805 -4.06608 0
-750.211 -4.09419 0
-748.614 -4.12461 0
-747.022 -4.15714 0
-745.426 -4.1882 0
-743.836 -4.21893 0
-742.245 -4.25159 0
-740.653 -4.28408 0
-739.06 -4.31726 0
-737.471 -4.34835 0
-735.88 -4.38092 0
-734.293 -4.41139 0
-732.703 -4.44383 0
-731.115 -4.47269 0
-729.523 -4.50033 0
-727.934 -4.53153 0
-726.345 -4.55932 0
-724.757 -4.58618 0
-723.171 -4.61586 0
-721.581 -4.64254 0
-719.993 -4.67027 0
-718.407 -4.6965 0
-716.82 -4.72568 0
-715.234 -4.7471 0
-713.647 -4.76819 0
-712.06 -4.79207 0
-710.471 -4.81136 0
-708.886 -4.83197 0
-707.303 -4.85043 0
-705.716 -4.87184 0
-704.13 -4.88904 0
-702.544 -4.90717 0
-700.959 -4.92693 0
-699.375 -4.94447 0
-697.791 -4.95792 0
-696.204 -4.97177 0
-694.62 -4.9861 0
-693.036 -4.99839 0
-691.452 -5.00813 0
-689.864 -5.01568 0
-688.277 -5.02634 0
-686.69 -5.03531 0
-685.11 -5.04136 0
-683.524 -5.0488 0
-681.94 -5.05369 0
-680.356 -5.05776 0
-678.771 -5.06221 0
-677.186 -5.06533 0
-675.599 -5.06998 0
-674.008 -5.06805 0
-672.423 -5.06667 0
-670.838 -5.07219 0
-669.253 -5.07072 0
-667.671 -5.07173 0
-666.087 -5.07112 0
-664.501 -5.06732 0
-662.915 -5.06511 0
-661.328 -5.05829 0
-659.74 -5.0594 0
-658.153 -5.05098 0
-656.565 -5.04632 0
-654.979 -5.04363 0
-653.393 -5.03198 0
-651.805 -5.02717 0
-650.217 -5.02306 0
-648.628 -5.01407 0
-647.042 -5.00414 0
-645.454 -4.99823 0
-643.866 -4.98921 0
-642.278 -4.97623 0
-640.689 -4.96754 0
-639.102 -4.95949 0
-637.514 -4.9517 0
-635.928 -4.94067 0
-634.339 -4.9292 0
-632.75 -4.92109 0
-631.158 -4.91091 0
-629.569 -4.89932 0
-627.979 -4.89197 0
-626.388 -4.88043 0
-624.795 -4.86989 0
-623.21 -4.85828 0
-621.619 -4.85093 0
-620.026 -4.83602 0
-618.434 -4.82671 0
-616.845 -4.81404 0
-615.253 -4.80002 0
-613.662 -4.78986 0
-612.071 -4.77916 0
-610.48 -4.77272 0
-608.885 -4.76802 0
-607.297 -4.75867 0
-605.708 -4.74603 0
-604.115 -4.73625 0
-602.523 -4.72917 0
-600.933 -4.72369 0
-599.344 -4.7129 0
-597.75 -4.70262 0
-596.16 -4.69501 0
-594.566 -4.68232 0
-592.972 -4.67675 0
-591.382 -4.67093 0
-589.789 -4.66011 0
-588.2 -4.65715 0
-586.605 -4.64909 0
-585.015 -4.64212 0
-583.422 -4.63552 0
-581.829 -4.62789 0
-580.24 -4.62304 0
-578.646 -4.6184 0
-577.054 -4.61338 0
-575.463 -4.61018 0
-573.869 -4.60556 0
-572.276 -4.5998 0
-570.684 -4.59978 0
-569.094 -4.59644 0
-567.501 -4.58973 0
-565.908 -4.58944 0
-564.32 -4.58587 0
-562.727 -4.58556 0
-561.139 -4.57924 0
-559.55 -4.57725 0
-557.958 -4.5749 0
-556.364 -4.5733 0
-554.773 -4.56952 0
-553.183 -4.56874 0
-551.587 -4.5674 0
-549.999 -4.5708 0
-548.408 -4.57238 0
-546.816 -4.56942 0
-545.217 -4.56956 0
-543.625 -4.57106 0
-542.035 -4.57479 0
-540.442 -4.57485 0
-538.851 -4.57544 0
-537.26 -4.57399 0
-535.671 -4.57848 0
-534.076 -4.58144 0
-532.485 -4.58069 0
-530.892 -4.58354 0
-529.302 -4.58665 0
-527.711 -4.58393 0
-526.119 -4.58519 0
-524.529 -4.5896 0
-522.935 -4.59336 0
-521.345 -4.59686 0
-519.756 -4.60272 0
-518.163 -4.60469 0
-516.574 -4.6067 0
-514.986 -4.61089 0
-513.393 -4.6111 0
-511.804 -4.61063 0
-510.213 -4.62258 0
-508.619 -4.62261 0
-507.029 -4.62184 0
-505.441 -4.62795 0
-503.85 -4.6333 0
-502.262 -4.63693 0
-500.671 -4.63726 0
-499.083 -4.64004 0
-497.494 -4.63914 0
-495.9 -4.64701 0
-494.311 -4.65037 0
-492.721 -4.65157 0
-491.132 -4.65769 0
-489.545 -4.66312 0
-487.954 -4.66407 0
-486.363 -4.66559 0
-484.771 -4.66785 0
-483.181 -4.67479 0
-481.591 -4.67899 0
-480 -4.6834 0
-478.407 -4.6875 0
-476.822 -4.68954 0
-475.232 -4.69195 0
-473.643 -4.69443 0
-472.048 -4.69602 0
-470.457 -4.70142 0
-468.867 -4.70449 0
-467.279 -4.70752 0
-465.688 -4.70968 0
-464.099 -4.7159 0
-462.507 -4.71939 0
-460.924 -4.71823 0
-459.331 -4.71863 0
-457.743 -4.72143 0
-456.157 -4.72825 0
-454.567 -4.72634 0
-452.975 -4.72592 0
-451.387 -4.72983 0
-449.799 -4.72638 0
-448.208 -4.72881 0
-446.617 -4.73434 0
-445.025 -4.73635 0
-443.438 -4.7416 0
-441.849 -4.74577 0
-440.261 -4.74478 0
-438.668 -4.74352 0
-437.083 -4.74494 0
-435.493 -4.74442 0
-433.899 -4.74384 0
-432.311 -4.74724 0
-430.724 -4.74608 0
-429.131 -4.74914 0
-427.546 -4.75036 0
-425.957 -4.75362 0
-424.367 -4.75426 0
-422.777 -4.75371 0
-421.188 -4.75268 0
-419.601 -4.75418 0
-418.003 -4.74861 0
-416.418 -4.75487 0
-414.831 -4.75308 0
-413.241 -4.75318 0
-411.652 -4.751 0
-410.061 -4.75226 0
-408.474 -4.74978 0
-406.883 -4.74655 0
-405.293 -4.73953 0
-403.699 -4.74259 0
-402.105 -4.74367 0
-400.52 -4.74084 0
-398.926 -4.74176 0
-397.34 -4.74701 0
-395.756 -4.7399 0
-394.16 -4.74177 0
-392.569 -4.73645 0
-390.978 -4.73613 0
-389.389 -4.73093 0
-387.798 -4.73086 0
-386.212 -4.73434 0
-384.621 -4.73163 0
-383.03 -4.73273 0
-381.441 -4.7293 0
-379.852 -4.73475 0
-378.266 -4.73261 0
-376.674 -4.73413 0
-375.085 -4.72848 0
-373.494 -4.72566 0
-371.906 -4.72761 0
-370.314 -4.72399 0
-368.722 -4.71862 0
-367.13 -4.72085 0
-365.54 -4.72379 0
-363.95 -4.72315 0
-362.364 -4.71783 0
-360.778 -4.71693 0
-359.191 -4.71313 0
-357.599 -4.70983 0
-356.009 -4.71585 0
-354.421 -4.71427 0
-352.828 -4.71241 0
-351.239 -4.71443 0
-349.651 -4.70961 0
-348.063 -4.70814 0
-346.471 -4.71049 0
-344.88 -4.7073 0
-343.293 -4.70854 0
-341.702 -4.70285 0
-340.112 -4.70288 0
-338.515 -4.70087 0
-336.926 -4.70072 0
-335.338 -4.69974 0
-333.748 -4.70018 0
-332.16 -4.70019 0
-330.569 -4.70455 0
-328.982 -4.70546 0
-327.391 -4.70123 0
-325.797 -4.70209 0
-324.206 -4.69968 0
-322.615 -4.69687 0
-321.03 -4.6962 0
-319.437 -4.69606 0
-317.851 -4.69452 0
-316.262 -4.68852 0
-314.669 -4.68743 0
-313.078 -4.69576 0
-311.489 -4.69389 0
-309.905 -4.68959 0
-308.314 -4.68914 0
-306.723 -4.6887 0
-305.135 -4.69224 0
-303.545 -4.69601 0
-301.953 -4.69069 0
-300.365 -4.69297 0
-298.774 -4.69224 0
-297.184 -4.69186 0
-295.591 -4.6963 0
-294.003 -4.69565 0
-292.415 -4.69609 0
-290.828 -4.69687 0
-289.243 -4.69671 0
-287.65 -4.69398 0
-286.059 -4.69693 0
-284.468 -4.69555 0
-282.875 -4.69151 0
-281.288 -4.69295 0
-279.699 -4.68734 0
-278.111 -4.6892 0
-276.518 -4.69371 0
-274.935 -4.69091 0
-273.342 -4.69178 0
-271.752 -4.69055 0
-270.162 -4.68902 0
-268.568 -4.69209 0
-266.977 -4.69071 0
-265.386 -4.68867 0
-263.801 -4.68301 0
-262.207 -4.68803 0
-260.622 -4.69071 0
-259.027 -4.68668 0
-257.439 -4.68521 0
-255.855 -4.6841 0
-254.269 -4.68719 0
-252.678 -4.68682 0
-251.087 -4.68934 0
-249.497 -4.68899 0
-247.908 -4.69221 0
-246.312 -4.69421 0
-244.721 -4.6954 0
-243.135 -4.69522 0
-241.542 -4.69766 0
-239.951 -4.69714 0
-238.364 -4.69702 0
-236.775 -4.69784 0
-235.189 -4.70184 0
-233.599 -4.70433 0
-232.013 -4.69986 0
-230.426 -4.69654 0
-228.835 -4.69981 0
-227.242 -4.70158 0
-225.651 -4.70007 0
-224.069 -4.70514 0
-222.482 -4.70197 0
-220.893 -4.69842 0
-219.299 -4.70127 0
-217.711 -4.70804 0
-216.119 -4.7002 0
-214.526 -4.69835 0
-212.935 -4.69636 0
-211.346 -4.70031 0
-209.756 -4.70711 0
-208.168 -4.7072 0
-206.58 -4.70456 0
-204.993 -4.69852 0
-203.401 -4.69944 0
-201.809 -4.70764 0
-200.226 -4.704 0
-198.638 -4.70364 0
-197.046 -4.69851 0
-195.457 -4.69652 0
-193.868 -4.701 0
-192.275 -4.70056 0
-190.69 -4.7013 0
-189.102 -4.70814 0
-187.514 -4.71111 0
-185.928 -4.71012 0
-184.337 -4.70799 0
-182.745 -4.70368 0
-181.16 -4.70197 0
-179.574 -4.70351 0
-177.982 -4.70499 0
-176.391 -4.70009 0
-174.799 -4.6997 0
-173.208 -4.69987 0
-171.622 -4.70375 0
-170.034 -4.70251 0
-168.442 -4.70545 0
-166.853 -4.70489 0
-165.264 -4.71044 0
-163.677 -4.70852 0
-162.087 -4.70379 0
-160.499 -4.7045 0
-158.908 -4.70641 0
-157.315 -4.70449 0
-155.724 -4.70554 0
-154.134 -4.7073 0
-152.545 -4.70705 0
-150.959 -4.70484 0
-149.369 -4.70835 0
-147.779 -4.70532 0
-146.192 -4.70804 0
-144.601 -4.70873 0
-143.018 -4.70734 0
-141.428 -4.70907 0
-139.841 -4.70945 0
-138.248 -4.70814 0
-136.659 -4.71136 0
-135.067 -4.71099 0
-133.477 -4.71274 0
-131.888 -4.70864 0
-130.303 -4.70862 0
-128.716 -4.70706 0
-127.126 -4.70909 0
-125.533 -4.7096 0
-123.941 -4.71119 0
-122.355 -4.71275 0
-120.768 -4.71259 0
-119.178 -4.7099 0
-117.589 -4.70742 0
-116 -4.70773 0
-114.41 -4.71066 0
-112.82 -4.70944 0
-111.233 -4.70966 0
-109.646 -4.70841 0
-108.055 -4.71071 0
-106.465 -4.70865 0
-104.875 -4.70628 0
-103.285 -4.70953 0
-101.699 -4.70789 0
-100.109 -4.71105 0
-98.5184 -4.70787 0
-96.9327 -4.70846 0
-95.3468 -4.70848 0
-93.7576 -4.70862 0
-92.1672 -4.70787 0
-90.5772 -4.70888 0
-88.9823 -4.71089 0
-87.393 -4.71078 0
-85.8054 -4.70833 0
-84.2132 -4.70824 0
-82.6246 -4.70657 0
-81.0349 -4.71083 0
-79.4466 -4.70841 0
-77.8567 -4.70771 0
-76.2682 -4.70689 0
-74.6797 -4.71031 0
-73.095 -4.70992 0
-71.5092 -4.7062 0
-69.9184 -4.70604 0
-68.3284 -4.70927 0
-66.7397 -4.71008 0
-65.1527 -4.70815 0
-63.563 -4.7082 0
-61.9726 -4.70937 0
-60.3857 -4.70888 0
-58.7977 -4.70965 0
-57.2068 -4.71083 0
-55.6168 -4.70718 0
-54.0267 -4.70979 0
-52.438 -4.70788 0
-50.8507 -4.70628 0
-49.2621 -4.70687 0
-47.6712 -4.70592 0
-46.0812 -4.70561 0
-44.4931 -4.70377 0
-42.9014 -4.70285 0
-41.311 -4.70574 0
-39.7215 -4.70543 0
-38.1307 -4.70496 0
-36.5422 -4.70545 0
-34.9508 -4.70663 0
-33.3638 -4.70646 0
-31.7767 -4.70653 0
-30.1852 -4.70868 0
-28.5944 -4.70833 0
-27.0082 -4.70804 0
-25.4203 -4.70771 0
-23.8345 -4.70549 0
-22.2427 -4.70588 0
-20.6502 -4.70895 0
-19.0631 -4.70237 0
-17.4769 -4.70239 0
-15.8865 -4.69799 0
-14.2997 -4.70079 0
-12.71 -4.69801 0
-11.1193 -4.70275 0
-9.5325 -4.70561 0
-7.9467 -4.70272 0
-6.36035 -4.70322 0
-4.77006 -4.70213 0
-3.18256 -4.70587 0
-1.59167 -4.70643 0
0 -4.70741 0
-1064.11 88.8645 0
-1064.47 79.4867 0
-1064.82 70.2619 0
-1065.14 61.2573 0
-1065.44 52.5061 0
-1065.68 44.0789 0
-1065.88 36.0656 0
-1066.05 28.5317 0
-1066.19 21.5129 0
-1066.28 15.0299 0
-1066.31 9.10215 0
-1066.27 3.74959 0
-1066.19 -1.02271 0
-1066.13 -5.28785 0
-1066.16 -9.25355 0
-1066.12 -12.9801 0
-1066.03 -16.3852 0
-1065.9 -19.4158 0
-1065.75 -22.0564 0
-1065.58 -24.3097 0
-1065.38 -26.1892 0
-1065.15 -27.7105 0
-1064.89 -28.8961 0
-1064.59 -29.7739 0
-1064.24 -30.373 0
-1063.85 -30.7225 0
-1063.4 -30.8487 0
-1062.9 -30.7761 0
-1062.33 -30.527 0
-1061.71 -30.1225 0
-1061.03 -29.5772 0
-1060.29 -28.912 0
-1059.5 -28.1382 0
-1058.65 -27.2732 0
-1057.75 -26.3302 0
-1056.79 -25.3182 0
-1055.78 -24.2523 0
-1054.72 -23.1411 0
-1053.62 -21.9947 0
-1052.46 -20.8209 0
-1051.27 -19.6274 0
-1050.03 -18.4236 0
-1048.75 -17.2172 0
-1047.44 -16.0095 0
-1046.08 -14.8098 0
-1044.7 -13.6239 0
-1043.28 -12.4558 0
-1041.83 -11.3071 0
-1040.35 -10.1855 0
-1038.85 -9.09071 0
-1037.32 -8.0255 0
-1035.77 -6.99546 0
-1034.19 -5.99993 0
-1032.6 -5.04152 0
-1030.99 -4.12246 0
-1029.36 -3.24242 0
-1027.71 -2.4058 0
-1026.05 -1.611 0
-1024.37 -0.858278 0
-1022.69 -0.149829 0
-1020.99 0.515833 0
-1019.29 1.13711 0
-1017.57 1.7146 0
-1015.85 2.25029 0
-1014.12 2.74094 0
-1012.39 3.19274 0
-1010.65 3.59952 0
-1008.91 3.96565 0
-1007.16 4.28927 0
-1005.41 4.57617 0
-1003.66 4.82371 0
-1001.91 5.03282 0
-1000.16 5.20592 0
-998.416 5.34314 0
-996.668 5.44625 0
-994.922 5.51699 0
-993.178 5.55544 0
-991.436 5.56368 0
-989.698 5.54381 0
-987.963 5.49541 0
-986.232 5.42073 0
-984.504 5.32111 0
-982.781 5.19777 0
-981.065 5.05191 0
-979.353 4.88461 0
-977.646 4.69776 0
-975.945 4.49394 0
-974.249 4.27386 0
-972.559 4.03758 0
-970.875 3.78919 0
-969.197 3.52782 0
-967.523 3.25558 0
-965.857 2.97145 0
-964.198 2.68014 0
-962.542 2.37998 0
-960.893 2.0738 0
-959.251 1.76394 0
-957.614 1.4492 0
-955.983 1.13232 0
-954.357 0.813775 0
-952.737 0.495766 0
-951.122 0.176514 0
-949.513 -0.140565 0
-947.907 -0.455733 0
-946.307 -0.767094 0
-944.711 -1.0759 0
-943.121 -1.37837 0
-941.536 -1.67635 0
-939.953 -1.97059 0
-938.376 -2.25534 0
-936.803 -2.53337 0
-935.23 -2.80192 0
-933.663 -3.06323 0
-932.098 -3.31553 0
-930.536 -3.56079 0
-928.976 -3.79623 0
-927.419 -4.0195 0
-925.864 -4.23485 0
-924.311 -4.44009 0
-922.761 -4.63279 0
-921.212 -4.81605 0
-919.664 -4.98909 0
-918.116 -5.14972 0
-916.57 -5.29817 0
-915.025 -5.43745 0
-913.48 -5.56485 0
-911.935 -5.68187 0
-910.392 -5.78973 0
-908.849 -5.88639 0
-907.306 -5.97108 0
-905.761 -6.04581 0
-904.219 -6.11103 0
-902.674 -6.16466 0
-901.129 -6.21074 0
-899.584 -6.24694 0
-898.039 -6.27293 0
-896.492 -6.28972 0
-894.943 -6.29855 0
-893.394 -6.29985 0
-891.844 -6.2907 0
-890.292 -6.27609 0
-888.741 -6.25298 0
-887.189 -6.22229 0
-885.634 -6.18611 0
-884.078 -6.14251 0
-882.521 -6.09153 0
-880.96 -6.03703 0
-879.401 -5.97572 0
-877.839 -5.91095 0
-876.275 -5.8407 0
-874.71 -5.76629 0
-873.144 -5.68547 0
-871.577 -5.60255 0
-870.008 -5.51756 0
-868.435 -5.42924 0
-866.862 -5.33724 0
-865.289 -5.24354 0
-863.712 -5.14744 0
-862.136 -5.05274 0
-860.558 -4.95325 0
-858.976 -4.85296 0
-857.396 -4.7518 0
-855.812 -4.65018 0
-854.229 -4.54848 0
-852.643 -4.44843 0
-851.057 -4.34934 0
-849.467 -4.24569 0
-847.878 -4.14519 0
-846.289 -4.0482 0
-844.696 -3.95005 0
-843.103 -3.85315 0
-841.51 -3.75685 0
-839.914 -3.66305 0
-838.317 -3.57007 0
-836.721 -3.48224 0
-835.124 -3.39559 0
-833.525 -3.30921 0
-831.926 -3.22694 0
-830.326 -3.14497 0
-828.725 -3.06478 0
-827.124 -2.99299 0
-825.522 -2.92173 0
-823.921 -2.85205 0
-822.318 -2.78432 0
-820.715 -2.71962 0
-819.112 -2.6604 0
-817.509 -2.60183 0
-815.905 -2.54779 0
-814.3 -2.49515 0
-812.695 -2.44602 0
-811.09 -2.39931 0
-809.486 -2.35858 0
-807.881 -2.31945 0
-806.276 -2.28302 0
-804.67 -2.25101 0
-803.064 -2.21876 0
-801.459 -2.19448 0
-799.854 -2.17019 0
-798.247 -2.14961 0
-796.642 -2.13081 0
-795.039 -2.11631 0
-793.436 -2.10202 0
-791.83 -2.09206 0
-790.226 -2.08548 0
-788.622 -2.07932 0
-787.019 -2.07615 0
-785.415 -2.07757 0
-783.813 -2.08015 0
-782.21 -2.08653 0
-780.611 -2.09303 0
-779.008 -2.10314 0
-777.406 -2.11534 0
-775.803 -2.12704 0
-774.202 -2.14085 0
-772.601 -2.15714 0
-771 -2.17778 0
-769.401 -2.19882 0
-767.802 -2.21675 0
-766.205 -2.23901 0
-764.606 -2.26114 0
-763.007 -2.28723 0
-761.41 -2.31501 0
-759.812 -2.34439 0
-758.215 -2.37153 0
-756.619 -2.40143 0
-755.024 -2.4289 0
-753.429 -2.45866 0
-751.835 -2.4903 0
-750.241 -2.52019 0
-748.647 -2.55067 0
-747.054 -2.58143 0
-745.461 -2.61487 0
-743.869 -2.64764 0
-742.276 -2.67896 0
-740.685 -2.71224 0
-739.094 -2.74463 0
-737.502 -2.77711 0
-735.911 -2.81081 0
-734.322 -2.84052 0
-732.732 -2.87211 0
-731.142 -2.90018 0
-729.553 -2.93081 0
-727.963 -2.95987 0
-726.373 -2.99028 0
-724.784 -3.0198 0
-723.196 -3.04703 0
-721.605 -3.07407 0
-720.019 -3.10249 0
-718.434 -3.12915 0
-716.846 -3.15398 0
-715.255 -3.17856 0
-713.669 -3.20301 0
-712.082 -3.22584 0
-710.494 -3.24516 0
-708.908 -3.26713 0
-707.322 -3.28536 0
-705.736 -3.30464 0
-704.15 -3.32335 0
-702.565 -3.33968 0
-700.977 -3.35834 0
-699.39 -3.37895 0
-697.803 -3.38988 0
-696.217 -3.4059 0
-694.631 -3.42068 0
-693.045 -3.43051 0
-691.459 -3.44052 0
-689.873 -3.45021 0
-688.287 -3.45952 0
-686.702 -3.4697 0
-685.116 -3.47571 0
-683.529 -3.48339 0
-681.945 -3.48798 0
-680.357 -3.48995 0
-678.773 -3.49579 0
-677.187 -3.49932 0
-675.597 -3.50048 0
-674.011 -3.50196 0
-672.425 -3.5031 0
-670.841 -3.50567 0
-669.255 -3.50296 0
-667.67 -3.50598 0
-666.083 -3.50048 0
-664.498 -3.50083 0
-662.91 -3.49618 0
-661.323 -3.49186 0
-659.735 -3.48941 0
-658.147 -3.48293 0
-656.561 -3.47845 0
-654.972 -3.47334 0
-653.385 -3.46673 0
-651.799 -3.45921 0
-650.213 -3.45456 0
-648.625 -3.44667 0
-647.035 -3.43619 0
-645.447 -3.42722 0
-643.858 -3.4166 0
-642.268 -3.40739 0
-640.68 -3.40062 0
-639.095 -3.39054 0
-637.505 -3.38082 0
-635.916 -3.3712 0
-634.328 -3.36076 0
-632.738 -3.35186 0
-631.149 -3.34036 0
-629.558 -3.32889 0
-627.969 -3.32 0
-626.378 -3.30857 0
-624.787 -3.2993 0
-623.196 -3.29039 0
-621.607 -3.27921 0
-620.017 -3.26528 0
-618.425 -3.25229 0
-616.833 -3.24092 0
-615.243 -3.22913 0
-613.652 -3.21931 0
-612.062 -3.20677 0
-610.472 -3.19956 0
-608.88 -3.19397 0
-607.288 -3.18438 0
-605.697 -3.17468 0
-604.105 -3.16461 0
-602.516 -3.15809 0
-600.927 -3.1491 0
-599.334 -3.14163 0
-597.743 -3.1289 0
-596.15 -3.12222 0
-594.557 -3.11081 0
-592.965 -3.10402 0
-591.375 -3.09691 0
-589.784 -3.09108 0
-588.195 -3.08429 0
-586.602 -3.0766 0
-585.01 -3.07033 0
-583.417 -3.06177 0
-581.828 -3.0561 0
-580.236 -3.05056 0
-578.643 -3.04694 0
-577.051 -3.03854 0
-575.456 -3.03582 0
-573.863 -3.03342 0
-572.273 -3.02868 0
-570.683 -3.02418 0
-569.089 -3.02304 0
-567.497 -3.01884 0
-565.908 -3.01817 0
-564.316 -3.01416 0
-562.726 -3.01321 0
-561.133 -3.00957 0
-559.542 -3.00638 0
-557.952 -3.00102 0
-556.361 -3.00182 0
-554.77 -2.99796 0
-553.183 -2.99476 0
-551.589 -2.99667 0
-549.998 -2.9971 0
-548.402 -2.99768 0
-546.81 -2.99519 0
-545.218 -2.99769 0
-543.625 -2.99882 0
-542.037 -3.00302 0
-540.443 -3.0027 0
-538.852 -3.00138 0
-537.262 -3.00375 0
-535.67 -3.00399 0
-534.077 -3.00732 0
-532.485 -3.00734 0
-530.897 -3.00824 0
-529.305 -3.01235 0
-527.712 -3.01302 0
-526.118 -3.01369 0
-524.527 -3.01781 0
-522.941 -3.02196 0
-521.348 -3.02777 0
-519.758 -3.03137 0
-518.167 -3.03205 0
-516.577 -3.03765 0
-514.987 -3.03682 0
-513.398 -3.03966 0
-511.803 -3.04363 0
-510.213 -3.04721 0
-508.621 -3.05082 0
-507.033 -3.05261 0
-505.441 -3.05368 0
-503.853 -3.06369 0
-502.262 -3.06502 0
-500.674 -3.0668 0
-499.083 -3.06822 0
-497.493 -3.07084 0
-495.904 -3.07622 0
-494.312 -3.07765 0
-492.723 -3.08411 0
-491.134 -3.08642 0
-489.547 -3.09148 0
-487.957 -3.09485 0
-486.364 -3.0945 0
-484.778 -3.09994 0
-483.186 -3.10473 0
-481.597 -3.11046 0
-480.004 -3.11228 0
-478.415 -3.1174 0
-476.821 -3.11971 0
-475.233 -3.11932 0
-473.643 -3.12161 0
-472.055 -3.12601 0
-470.463 -3.12975 0
-468.87 -3.13365 0
-467.279 -3.13737 0
-465.691 -3.13983 0
-464.102 -3.146 0
-462.513 -3.15116 0
-460.923 -3.14622 0
-459.334 -3.15065 0
-457.747 -3.15254 0
-456.156 -3.15412 0
-454.567 -3.15734 0
-452.979 -3.15922 0
-451.39 -3.15805 0
-449.799 -3.15723 0
-448.21 -3.16063 0
-446.619 -3.16502 0
-445.029 -3.16711 0
-443.443 -3.16808 0
-441.851 -3.17023 0
-440.259 -3.17071 0
-438.671 -3.17372 0
-437.079 -3.17353 0
-435.489 -3.17637 0
-433.902 -3.17623 0
-432.313 -3.17848 0
-430.723 -3.17753 0
-429.135 -3.17954 0
-427.546 -3.17911 0
-425.957 -3.18164 0
-424.366 -3.18078 0
-422.771 -3.18453 0
-421.185 -3.18177 0
-419.599 -3.182 0
-418.008 -3.17936 0
-416.419 -3.18176 0
-414.828 -3.18384 0
-413.239 -3.18031 0
-411.651 -3.18068 0
-410.06 -3.18202 0
-408.469 -3.17725 0
-406.878 -3.17818 0
-405.284 -3.17438 0
-403.698 -3.17242 0
-402.105 -3.17386 0
-400.517 -3.17115 0
-398.929 -3.17282 0
-397.342 -3.17395 0
-395.752 -3.16879 0
-394.158 -3.1686 0
-392.569 -3.1674 0
-390.979 -3.16419 0
-389.388 -3.15989 0
-387.804 -3.16314 0
-386.212 -3.16263 0
-384.624 -3.16245 0
-383.032 -3.16164 0
-381.442 -3.15946 0
-379.854 -3.16144 0
-378.261 -3.16104 0
-376.674 -3.16135 0
-375.083 -3.15794 0
-373.494 -3.15723 0
-371.9 -3.15208 0
-370.313 -3.15371 0
-368.726 -3.14887 0
-367.134 -3.14867 0
-365.541 -3.15424 0
-363.95 -3.15287 0
-362.362 -3.14944 0
-360.775 -3.14713 0
-359.186 -3.14278 0
-357.598 -3.14148 0
-356.006 -3.14425 0
-354.417 -3.14433 0
-352.828 -3.14295 0
-351.237 -3.14325 0
-349.647 -3.14143 0
-348.059 -3.13885 0
-346.469 -3.13452 0
-344.877 -3.13785 0
-343.283 -3.14029 0
-341.695 -3.13152 0
-340.108 -3.13091 0
-338.517 -3.13186 0
-336.928 -3.13078 0
-335.338 -3.12803 0
-333.752 -3.1302 0
-332.162 -3.13119 0
-330.575 -3.13244 0
-328.98 -3.13434 0
-327.391 -3.1298 0
-325.797 -3.13284 0
-324.207 -3.12875 0
-322.616 -3.12719 0
-321.027 -3.12749 0
-319.441 -3.12737 0
-317.851 -3.12204 0
-316.256 -3.11721 0
-314.67 -3.11883 0
-313.079 -3.12142 0
-311.488 -3.12307 0
-309.897 -3.12177 0
-308.31 -3.11894 0
-306.722 -3.12227 0
-305.138 -3.12286 0
-303.544 -3.12158 0
-301.955 -3.11914 0
-300.362 -3.11992 0
-298.77 -3.11928 0
-297.182 -3.12219 0
-295.595 -3.12409 0
-294.004 -3.13019 0
-292.414 -3.12712 0
-290.829 -3.13042 0
-289.238 -3.12569 0
-287.65 -3.12294 0
-286.059 -3.12399 0
-284.468 -3.12238 0
-282.876 -3.12216 0
-281.288 -3.12248 0
-279.699 -3.11537 0
-278.108 -3.11763 0
-276.521 -3.1222 0
-274.932 -3.11855 0
-273.343 -3.11873 0
-271.751 -3.12022 0
-270.162 -3.12108 0
-268.57 -3.11971 0
-266.978 -3.11886 0
-265.387 -3.11689 0
-263.795 -3.11499 0
-262.209 -3.11622 0
-260.615 -3.11537 0
-259.031 -3.11535 0
-257.438 -3.11436 0
-255.852 -3.11356 0
-254.265 -3.11668 0
-252.675 -3.1192 0
-251.086 -3.11836 0
-249.498 -3.12103 0
-247.909 -3.12107 0
-246.316 -3.12122 0
-244.727 -3.12284 0
-243.135 -3.12322 0
-241.544 -3.12519 0
-239.955 -3.12975 0
-238.369 -3.12928 0
-236.78 -3.13032 0
-235.194 -3.13414 0
-233.603 -3.13127 0
-232.01 -3.12944 0
-230.421 -3.1287 0
-228.834 -3.12895 0
-227.247 -3.13151 0
-225.657 -3.1323 0
-224.065 -3.13248 0
-222.475 -3.13317 0
-220.889 -3.12842 0
-219.296 -3.13237 0
-217.71 -3.13581 0
-216.115 -3.12897 0
-214.529 -3.12761 0
-212.939 -3.12818 0
-211.35 -3.13166 0
-209.76 -3.1368 0
-208.17 -3.13503 0
-206.582 -3.13114 0
-204.99 -3.13147 0
-203.402 -3.13311 0
-201.812 -3.14059 0
-200.228 -3.1329 0
-198.638 -3.13401 0
-197.049 -3.13122 0
-195.459 -3.12776 0
-193.87 -3.12837 0
-192.281 -3.12994 0
-190.691 -3.13383 0
-189.107 -3.13728 0
-187.513 -3.14181 0
-185.924 -3.13985 0
-184.335 -3.1363 0
-182.747 -3.13386 0
-181.157 -3.13541 0
-179.568 -3.13608 0
-177.977 -3.13233 0
-176.389 -3.13151 0
-174.801 -3.13243 0
-173.21 -3.13104 0
-171.622 -3.13275 0
-170.032 -3.13471 0
-168.442 -3.13493 0
-166.853 -3.13618 0
-165.263 -3.13961 0
-163.674 -3.1358 0
-162.086 -3.13624 0
-160.496 -3.13464 0
-158.906 -3.1357 0
-157.316 -3.13593 0
-155.727 -3.13503 0
-154.138 -3.13687 0
-152.55 -3.13799 0
-150.96 -3.13792 0
-149.372 -3.13784 0
-147.782 -3.13589 0
-146.193 -3.13835 0
-144.605 -3.13974 0
-143.017 -3.13843 0
-141.429 -3.1375 0
-139.84 -3.13869 0
-138.249 -3.13921 0
-136.661 -3.13901 0
-135.07 -3.13986 0
-133.48 -3.14307 0
-131.89 -3.13967 0
-130.301 -3.14119 0
-128.712 -3.13874 0
-127.125 -3.13894 0
-125.536 -3.13692 0
-123.947 -3.1417 0
-122.356 -3.14401 0
-120.767 -3.14111 0
-119.177 -3.14064 0
-117.589 -3.13848 0
-115.999 -3.13934 0
-114.412 -3.14031 0
-112.82 -3.14113 0
-111.235 -3.14159 0
-109.646 -3.13812 0
-108.055 -3.13984 0
-106.466 -3.13986 0
-104.875 -3.14006 0
-103.286 -3.13885 0
-101.698 -3.13947 0
-100.111 -3.14049 0
-98.5226 -3.13857 0
-96.932 -3.14003 0
-95.3441 -3.13906 0
-93.7554 -3.13763 0
-92.1662 -3.13765 0
-90.5767 -3.13795 0
-88.9871 -3.13832 0
-87.3948 -3.13887 0
-85.8058 -3.1392 0
-84.2167 -3.13773 0
-82.6246 -3.13852 0
-81.038 -3.13772 0
-79.4482 -3.13799 0
-77.8592 -3.13731 0
-76.2702 -3.13994 0
-74.6825 -3.13984 0
-73.0931 -3.13906 0
-71.5066 -3.1377 0
-69.9191 -3.13857 0
-68.3297 -3.13802 0
-66.739 -3.13863 0
-65.1506 -3.14016 0
-63.5604 -3.13872 0
-61.9715 -3.13982 0
-60.3822 -3.14137 0
-58.7957 -3.1427 0
-57.2071 -3.1405 0
-55.6158 -3.13954 0
-54.0256 -3.14083 0
-52.4366 -3.1395 0
-50.8481 -3.1383 0
-49.2581 -3.13638 0
-47.6681 -3.13505 0
-46.0787 -3.1344 0
-44.4887 -3.13337 0
-42.9001 -3.135 0
-41.311 -3.13469 0
-39.7215 -3.13315 0
-38.1323 -3.13605 0
-36.5448 -3.1344 0
-34.9558 -3.13527 0
-33.3641 -3.13562 0
-31.7765 -3.13615 0
-30.1859 -3.13791 0
-28.596 -3.13776 0
-27.0071 -3.13798 0
-25.418 -3.13781 0
-23.8302 -3.13746 0
-22.2395 -3.13682 0
-20.6508 -3.13711 0
-19.0624 -3.13382 0
-17.4738 -3.13227 0
-15.8864 -3.12878 0
-14.2993 -3.13038 0
-12.7096 -3.12991 0
-11.1198 -3.13283 0
-9.5294 -3.13571 0
-7.9433 -3.13594 0
-6.35649 -3.13311 0
-4.76507 -3.1334 0
-3.17875 -3.13495 0
-1.59044 -3.13407 0
0 -3.13758 0
-1073.68 89.7267 0
-1073.64 80.1103 0
-1073.76 70.8733 0
-1073.83 61.8753 0
-1073.83 53.1472 0
-1073.73 44.7409 0
-1073.53 36.7298 0
-1073.26 29.1842 0
-1072.93 22.1522 0
-1072.52 15.6617 0
-1072.06 9.73644 0
-1071.54 4.37663 0
-1071.03 -0.444522 0
-1070.58 -4.8392 0
-1070.18 -8.87377 0
-1069.81 -12.5703 0
-1069.39 -15.9489 0
-1068.91 -18.9667 0
-1068.39 -21.6057 0
-1067.85 -23.8602 0
-1067.29 -25.7381 0
-1066.71 -27.2537 0
-1066.13 -28.4288 0
-1065.52 -29.2881 0
-1064.9 -29.862 0
-1064.26 -30.1795 0
-1063.59 -30.2693 0
-1062.89 -30.1544 0
-1062.15 -29.8604 0
-1061.38 -29.4079 0
-1060.56 -28.8153 0
-1059.7 -28.1004 0
-1058.8 -27.279 0
-1057.86 -26.3644 0
-1056.88 -25.3729 0
-1055.86 -24.3149 0
-1054.8 -23.203 0
-1053.69 -22.0478 0
-1052.55 -20.8577 0
-1051.37 -19.6427 0
-1050.16 -18.4102 0
-1048.91 -17.1687 0
-1047.62 -15.9257 0
-1046.31 -14.6836 0
-1044.96 -13.4519 0
-1043.59 -12.2352 0
-1042.19 -11.0376 0
-1040.76 -9.86229 0
-1039.3 -8.71435 0
-1037.83 -7.59463 0
-1036.33 -6.50828 0
-1034.8 -5.45641 0
-1033.26 -4.44198 0
-1031.7 -3.46535 0
-1030.13 -2.52968 0
-1028.54 -1.63513 0
-1026.93 -0.783446 0
-1025.31 0.023625 0
-1023.68 0.787507 0
-1022.03 1.50735 0
-1020.38 2.18157 0
-1018.71 2.81177 0
-1017.04 3.39659 0
-1015.36 3.93874 0
-1013.67 4.43653 0
-1011.98 4.89184 0
-1010.28 5.30282 0
-1008.57 5.67128 0
-1006.87 5.99904 0
-1005.16 6.28642 0
-1003.44 6.53471 0
-1001.73 6.74542 0
-1000.01 6.91806 0
-998.297 7.05378 0
-996.582 7.15689 0
-994.867 7.2251 0
-993.152 7.26228 0
-991.439 7.26853 0
-989.728 7.24477 0
-988.019 7.19343 0
-986.312 7.11468 0
-984.608 7.01171 0
-982.909 6.88307 0
-981.213 6.73379 0
-979.52 6.56263 0
-977.832 6.3713 0
-976.147 6.16155 0
-974.466 5.93748 0
-972.79 5.69625 0
-971.118 5.44265 0
-969.45 5.17578 0
-967.788 4.89669 0
-966.132 4.60885 0
-964.479 4.31109 0
-962.831 4.00672 0
-961.188 3.6953 0
-959.55 3.3803 0
-957.918 3.06089 0
-956.288 2.73864 0
-954.665 2.41552 0
-953.044 2.09242 0
-951.427 1.76778 0
-949.816 1.44567 0