<?xml version="1.0"?>
<VTKFile type="StructuredGrid"  version="0.1" byte_order="LittleEndian" compressor="vtkZLibDataCompressor">
  <StructuredGrid WholeExtent="0 700 0 30 0 0">
    <Piece Extent="0 700 0 30 0 0">
      <PointData Vectors="Velocity">
        <DataArray type="Float32" Name="Velocity" NumberOfComponents="3" format="ascii">
-1075.04 105.661 0
-1075.43 95.3918 0
-1075.88 85.2469 0
-1076.35 75.3236 0
-1076.84 65.6472 0
-1077.36 56.2902 0
-1077.94 47.341 0
-1078.55 38.8576 0
-1079.16 30.8682 0
-1079.77 23.4008 0
-1080.37 16.4687 0
-1080.93 10.1026 0
-1081.44 4.31629 0
-1081.84 -0.902408 0
-1082.12 -5.6872 0
-1082.32 -10.1923 0
-1082.61 -14.3875 0
-1082.85 -18.2227 0
-1083.07 -21.6836 0
-1083.3 -24.7549 0
-1083.49 -27.4377 0
-1083.66 -29.7385 0
-1083.78 -31.6817 0
-1083.85 -33.2798 0
-1083.86 -34.5698 0
-1083.81 -35.5595 0
-1083.69 -36.2823 0
-1083.49 -36.7583 0
-1083.23 -37.0188 0
-1082.88 -37.0747 0
-1082.47 -36.9476 0
-1081.99 -36.6538 0
-1081.42 -36.2116 0
-1080.79 -35.6362 0
-1080.09 -34.9411 0
-1079.33 -34.138 0
-1078.5 -33.2402 0
-1077.61 -32.258 0
-1076.66 -31.206 0
-1075.65 -30.0909 0
-1074.59 -28.9219 0
-1073.47 -27.7124 0
-1072.3 -26.4695 0
-1071.07 -25.1987 0
-1069.8 -23.9069 0
-1068.49 -22.6019 0
-1067.14 -21.2971 0
-1065.74 -19.9851 0
-1064.31 -18.6774 0
-1062.84 -17.3819 0
-1061.33 -16.0984 0
-1059.8 -14.8308 0
-1058.23 -13.5868 0
-1056.64 -12.37 0
-1055.02 -11.1761 0
-1053.38 -10.0131 0
-1051.71 -8.88062 0
-1050.02 -7.78443 0
-1048.31 -6.72498 0
-1046.58 -5.703 0
-1044.84 -4.72184 0
-1043.09 -3.7787 0
-1041.31 -2.87541 0
-1039.53 -2.01683 0
-1037.74 -1.20048 0
-1035.93 -0.429738 0
-1034.12 0.299617 0
-1032.3 0.985365 0
-1030.47 1.63004 0
-1028.64 2.23098 0
-1026.8 2.78761 0
-1024.96 3.29995 0
-1023.11 3.77391 0
-1021.27 4.20052 0
-1019.42 4.58828 0
-1017.57 4.93624 0
-1015.72 5.24221 0
-1013.87 5.50957 0
-1012.02 5.73904 0
-1010.18 5.92899 0
-1008.34 6.08571 0
-1006.5 6.20529 0
-1004.66 6.29133 0
-1002.83 6.34223 0
-1001 6.36422 0
-999.182 6.35539 0
-997.366 6.31758 0
-995.556 6.24842 0
-993.75 6.15366 0
-991.951 6.03236 0
-990.16 5.88768 0
-988.373 5.72071 0
-986.594 5.53221 0
-984.823 5.32202 0
-983.06 5.0927 0
-981.302 4.8428 0
-979.553 4.57914 0
-977.81 4.29871 0
-976.076 4.00601 0
-974.349 3.69889 0
-972.63 3.3785 0
-970.918 3.04993 0
-969.212 2.71195 0
-967.514 2.36737 0
-965.825 2.01439 0
-964.141 1.65684 0
-962.464 1.29112 0
-960.794 0.92595 0
-959.131 0.555706 0
-957.474 0.184155 0
-955.827 -0.189213 0
-954.184 -0.560418 0
-952.549 -0.928731 0
-950.918 -1.2976 0
-949.293 -1.66263 0
-947.673 -2.02205 0
-946.057 -2.37956 0
-944.447 -2.73186 0
-942.842 -3.07646 0
-941.239 -3.41325 0
-939.642 -3.74588 0
-938.053 -4.06868 0
-936.463 -4.3847 0
-934.878 -4.69125 0
-933.298 -4.98688 0
-931.72 -5.27507 0
-930.144 -5.553 0
-928.57 -5.81948 0
-927 -6.07568 0
-925.43 -6.32137 0
-923.862 -6.55576 0
-922.296 -6.78037 0
-920.733 -6.99176 0
-919.171 -7.19177 0
-917.608 -7.38222 0
-916.047 -7.56007 0
-914.486 -7.727 0
-912.927 -7.88178 0
-911.369 -8.02432 0
-909.808 -8.15731 0
-908.252 -8.27896 0
-906.692 -8.38833 0
-905.133 -8.48416 0
-903.575 -8.5727 0
-902.013 -8.6492 0
-900.452 -8.71369 0
-898.891 -8.76889 0
-897.327 -8.81525 0
-895.765 -8.85166 0
-894.199 -8.87527 0
-892.632 -8.89457 0
-891.064 -8.90314 0
-889.497 -8.90123 0
-887.926 -8.89037 0
-886.352 -8.87304 0
-884.778 -8.84744 0
-883.204 -8.81219 0
-881.625 -8.77336 0
-880.049 -8.72499 0
-878.47 -8.6707 0
-876.887 -8.60894 0
-875.302 -8.54351 0
-873.715 -8.47141 0
-872.126 -8.39568 0
-870.536 -8.31561 0
-868.944 -8.22573 0
-867.349 -8.13482 0
-865.754 -8.03962 0
-864.157 -7.93956 0
-862.558 -7.83943 0
-860.957 -7.73317 0
-859.35 -7.62633 0
-857.747 -7.51474 0
-856.139 -7.40453 0
-854.531 -7.2921 0
-852.92 -7.17745 0
-851.308 -7.06163 0
-849.693 -6.94532 0
-848.078 -6.82729 0
-846.46 -6.71075 0
-844.841 -6.59128 0
-843.22 -6.46971 0
-841.598 -6.35297 0
-839.975 -6.23542 0
-838.349 -6.1169 0
-836.723 -6.00199 0
-835.097 -5.88968 0
-833.465 -5.77674 0
-831.834 -5.66342 0
-830.204 -5.55612 0
-828.573 -5.44439 0
-826.94 -5.33994 0
-825.308 -5.23141 0
-823.67 -5.13365 0
-822.033 -5.03204 0
-820.394 -4.93743 0
-818.754 -4.84269 0
-817.118 -4.75129 0
-815.479 -4.66605 0
-813.84 -4.58178 0
-812.2 -4.49916 0
-810.558 -4.41796 0
-808.916 -4.34311 0
-807.274 -4.27046 0
-805.63 -4.19849 0
-803.985 -4.1356 0
-802.342 -4.07229 0
-800.7 -4.01237 0
-799.059 -3.9561 0
-797.414 -3.90259 0
-795.77 -3.85107 0
-794.127 -3.80836 0
-792.483 -3.76241 0
-790.841 -3.71806 0
-789.196 -3.68181 0
-787.555 -3.64875 0
-785.907 -3.61793 0
-784.264 -3.59132 0
-782.618 -3.56756 0
-780.973 -3.54714 0
-779.331 -3.52917 0
-777.687 -3.51531 0
-776.043 -3.50205 0
-774.404 -3.49231 0
-772.764 -3.48669 0
-771.12 -3.48312 0
-769.48 -3.4819 0
-767.839 -3.4842 0
-766.198 -3.48249 0
-764.556 -3.48784 0
-762.918 -3.49367 0
-761.281 -3.50402 0
-759.643 -3.51546 0
-758.001 -3.53358 0
-756.367 -3.54866 0
-754.732 -3.56812 0
-753.096 -3.58515 0
-751.455 -3.6033 0
-749.82 -3.62909 0
-748.184 -3.6567 0
-746.552 -3.68484 0
-744.92 -3.71105 0
-743.283 -3.74269 0
-741.652 -3.772 0
-740.02 -3.80252 0
-738.393 -3.83521 0
-736.759 -3.86577 0
-735.125 -3.90148 0
-733.497 -3.93761 0
-731.868 -3.97177 0
-730.237 -4.01014 0
-728.609 -4.04679 0
-726.979 -4.08184 0
-725.355 -4.12201 0
-723.729 -4.16046 0
-722.106 -4.19693 0
-720.479 -4.23123 0
-718.852 -4.26929 0
-717.225 -4.30679 0
-715.602 -4.34058 0
-713.975 -4.37919 0
-712.352 -4.41674 0
-710.73 -4.45503 0
-709.109 -4.4923 0
-707.486 -4.53153 0
-705.863 -4.56456 0
-704.24 -4.59804 0
-702.618 -4.62998 0
-700.997 -4.66603 0
-699.376 -4.69902 0
-697.756 -4.7328 0
-696.133 -4.76724 0
-694.515 -4.79805 0
-692.895 -4.83067 0
-691.277 -4.86091 0
-689.656 -4.88915 0
-688.041 -4.91954 0
-686.42 -4.94503 0
-684.8 -4.9715 0
-683.179 -4.99576 0
-681.562 -5.02222 0
-679.942 -5.04763 0
-678.321 -5.06961 0
-676.705 -5.09188 0
-675.086 -5.11193 0
-673.471 -5.1351 0
-671.853 -5.15677 0
-670.231 -5.1753 0
-668.613 -5.19391 0
-666.997 -5.21092 0
-665.382 -5.22317 0
-663.764 -5.23711 0
-662.142 -5.2499 0
-660.526 -5.26673 0
-658.91 -5.27951 0
-657.291 -5.28682 0
-655.675 -5.29542 0
-654.053 -5.30345 0
-652.438 -5.31016 0
-650.818 -5.31607 0
-649.199 -5.32319 0
-647.582 -5.33361 0
-645.964 -5.33215 0
-644.343 -5.33309 0
-642.725 -5.33962 0
-641.11 -5.33819 0
-639.49 -5.34265 0
-637.87 -5.34306 0
-636.25 -5.34434 0
-634.634 -5.34051 0
-633.015 -5.3376 0
-631.395 -5.33357 0
-629.776 -5.33265 0
-628.154 -5.32645 0
-626.537 -5.32732 0
-624.918 -5.31645 0
-623.296 -5.31499 0
-621.677 -5.31105 0
-620.059 -5.3014 0
-618.443 -5.29108 0
-616.818 -5.28275 0
-615.197 -5.27886 0
-613.574 -5.26787 0
-611.953 -5.26645 0
-610.334 -5.25272 0
-608.709 -5.24301 0
-607.089 -5.22598 0
-605.469 -5.21628 0
-603.848 -5.20548 0
-602.226 -5.19456 0
-600.6 -5.18417 0
-598.974 -5.16938 0
-597.357 -5.15515 0
-595.732 -5.14793 0
-594.109 -5.13632 0
-592.489 -5.11762 0
-590.867 -5.10486 0
-589.241 -5.09613 0
-587.617 -5.08273 0
-585.994 -5.07143 0
-584.368 -5.06065 0
-582.746 -5.04506 0
-581.118 -5.0316 0
-579.495 -5.01989 0
-577.87 -5.00902 0
-576.246 -4.99577 0
-574.623 -4.98553 0
-573.001 -4.96733 0
-571.374 -4.95902 0
-569.751 -4.94648 0
-568.127 -4.93657 0
-566.501 -4.92558 0
-564.878 -4.91281 0
-563.25 -4.90221 0
-561.626 -4.89268 0
-560.001 -4.88151 0
-558.375 -4.86937 0
-556.747 -4.86258 0
-555.123 -4.8551 0
-553.499 -4.84273 0
-551.873 -4.83437 0
-550.255 -4.82188 0
-548.627 -4.81222 0
-546.995 -4.8065 0
-545.371 -4.79933 0
-543.745 -4.78948 0
-542.119 -4.77806 0
-540.495 -4.77316 0
-538.87 -4.76866 0
-537.246 -4.76042 0
-535.621 -4.75884 0
-533.996 -4.75307 0
-532.368 -4.75269 0
-530.742 -4.74502 0
-529.113 -4.7363 0
-527.488 -4.73266 0
-525.865 -4.72441 0
-524.243 -4.72068 0
-522.617 -4.71703 0
-520.99 -4.71141 0
-519.361 -4.70396 0
-517.739 -4.70185 0
-516.119 -4.70037 0
-514.492 -4.69645 0
-512.868 -4.69549 0
-511.242 -4.69603 0
-509.618 -4.68854 0
-507.995 -4.68547 0
-506.367 -4.68229 0
-504.739 -4.68188 0
-503.115 -4.67979 0
-501.489 -4.68538 0
-499.865 -4.68619 0
-498.239 -4.68086 0
-496.613 -4.68513 0
-494.987 -4.68599 0
-493.359 -4.68732 0
-491.736 -4.68891 0
-490.113 -4.68859 0
-488.491 -4.6879 0
-486.867 -4.69488 0
-485.241 -4.69704 0
-483.614 -4.69671 0
-481.99 -4.70002 0
-480.365 -4.69691 0
-478.745 -4.70399 0
-477.124 -4.70377 0
-475.495 -4.70528 0
-473.869 -4.70597 0
-472.243 -4.70734 0
-470.617 -4.71222 0
-468.989 -4.71924 0
-467.367 -4.72063 0
-465.745 -4.72008 0
-464.117 -4.72727 0
-462.493 -4.73169 0
-460.868 -4.74 0
-459.247 -4.74021 0
-457.626 -4.7471 0
-455.997 -4.75111 0
-454.374 -4.75173 0
-452.751 -4.75718 0
-451.129 -4.76469 0
-449.507 -4.76697 0
-447.886 -4.76672 0
-446.263 -4.77437 0
-444.641 -4.77773 0
-443.012 -4.77778 0
-441.394 -4.78568 0
-439.77 -4.78894 0
-438.148 -4.78822 0
-436.525 -4.79096 0
-434.898 -4.79673 0
-433.273 -4.80033 0
-431.646 -4.80372 0
-430.025 -4.80851 0
-428.396 -4.80945 0
-426.778 -4.81603 0
-425.157 -4.82102 0
-423.539 -4.82164 0
-421.91 -4.82557 0
-420.286 -4.82992 0
-418.665 -4.83356 0
-417.042 -4.83821 0
-415.418 -4.8402 0
-413.795 -4.8454 0
-412.171 -4.84579 0
-410.546 -4.8497 0
-408.923 -4.85199 0
-407.302 -4.85694 0
-405.678 -4.85738 0
-404.053 -4.85836 0
-402.432 -4.86271 0
-400.81 -4.86652 0
-399.183 -4.86568 0
-397.557 -4.86732 0
-395.938 -4.87384 0
-394.315 -4.86893 0
-392.689 -4.87074 0
-391.069 -4.87531 0
-389.448 -4.87866 0
-387.828 -4.87647 0
-386.204 -4.88227 0
-384.581 -4.88746 0
-382.957 -4.88948 0
-381.336 -4.88715 0
-379.709 -4.88456 0
-378.093 -4.892 0
-376.462 -4.89093 0
-374.841 -4.88914 0
-373.22 -4.88416 0
-371.591 -4.8869 0
-369.97 -4.89561 0
-368.348 -4.89544 0
-366.728 -4.89752 0
-365.107 -4.89179 0
-363.487 -4.89441 0
-361.861 -4.89511 0
-360.242 -4.89818 0
-358.618 -4.89758 0
-356.997 -4.89292 0
-355.372 -4.89909 0
-353.749 -4.89712 0
-352.128 -4.89536 0
-350.512 -4.89724 0
-348.89 -4.89475 0
-347.258 -4.89627 0
-345.634 -4.89289 0
-344.014 -4.89422 0
-342.391 -4.88958 0
-340.765 -4.89028 0
-339.147 -4.89699 0
-337.522 -4.8929 0
-335.897 -4.89473 0
-334.278 -4.89676 0
-332.655 -4.89171 0
-331.03 -4.89234 0
-329.404 -4.88964 0
-327.78 -4.8886 0
-326.155 -4.88266 0
-324.537 -4.87804 0
-322.911 -4.87983 0
-321.293 -4.87953 0
-319.671 -4.87863 0
-318.049 -4.88191 0
-316.422 -4.88207 0
-314.798 -4.87693 0
-313.176 -4.87523 0
-311.554 -4.87696 0
-309.933 -4.8775 0
-308.311 -4.87218 0
-306.692 -4.87312 0
-305.068 -4.86723 0
-303.444 -4.85966 0
-301.817 -4.86317 0
-300.197 -4.86348 0
-298.572 -4.86472 0
-296.952 -4.86206 0
-295.332 -4.86374 0
-293.705 -4.86524 0
-292.082 -4.86482 0
-290.46 -4.86329 0
-288.837 -4.85708 0
-287.214 -4.85627 0
-285.59 -4.85614 0
-283.96 -4.8487 0
-282.337 -4.85027 0
-280.713 -4.85635 0
-279.089 -4.84763 0
-277.466 -4.84588 0
-275.845 -4.85311 0
-274.222 -4.84458 0
-272.598 -4.84528 0
-270.981 -4.85133 0
-269.359 -4.84715 0
-267.728 -4.84568 0
-266.11 -4.84126 0
-264.487 -4.84022 0
-262.859 -4.83855 0
-261.239 -4.83184 0
-259.615 -4.8334 0
-257.997 -4.83399 0
-256.37 -4.83254 0
-254.752 -4.83151 0
-253.127 -4.82755 0
-251.501 -4.82946 0
-249.88 -4.82868 0
-248.258 -4.82117 0
-246.634 -4.82981 0
-245.01 -4.82652 0
-243.383 -4.82425 0
-241.762 -4.82563 0
-240.139 -4.82328 0
-238.515 -4.82655 0
-236.891 -4.83076 0
-235.267 -4.82372 0
-233.645 -4.82643 0
-232.018 -4.8293 0
-230.392 -4.8267 0
-228.772 -4.82485 0
-227.147 -4.82311 0
-225.525 -4.8229 0
-223.9 -4.824 0
-222.281 -4.82273 0
-220.657 -4.82344 0
-219.035 -4.82436 0
-217.411 -4.82265 0
-215.79 -4.81704 0
-214.169 -4.82253 0
-212.547 -4.81628 0
-210.92 -4.81569 0
-209.301 -4.81459 0
-207.681 -4.81398 0
-206.055 -4.81541 0
-204.436 -4.81337 0
-202.806 -4.81259 0
-201.187 -4.80942 0
-199.56 -4.81433 0
-197.933 -4.81364 0
-196.312 -4.81783 0
-194.686 -4.81289 0
-193.063 -4.81492 0
-191.443 -4.80995 0
-189.828 -4.81187 0
-188.203 -4.8159 0
-186.585 -4.81075 0
-184.955 -4.81531 0
-183.334 -4.81564 0
-181.716 -4.8196 0
-180.094 -4.82179 0
-178.468 -4.82251 0
-176.846 -4.81864 0
-175.218 -4.81711 0
-173.596 -4.81165 0
-171.982 -4.81334 0
-170.354 -4.81538 0
-168.731 -4.81163 0
-167.111 -4.81694 0
-165.488 -4.8129 0
-163.867 -4.80979 0
-162.247 -4.81312 0
-160.625 -4.81525 0
-158.999 -4.81424 0
-157.38 -4.81173 0
-155.754 -4.81479 0
-154.127 -4.81507 0
-152.501 -4.81168 0
-150.874 -4.81443 0
-149.256 -4.81354 0
-147.634 -4.8191 0
-146.016 -4.81859 0
-144.402 -4.82024 0
-142.777 -4.81897 0
-141.157 -4.81899 0
-139.53 -4.82351 0
-137.908 -4.82148 0
-136.284 -4.8221 0
-134.659 -4.82075 0
-133.043 -4.81643 0
-131.42 -4.8136 0
-129.798 -4.81658 0
-128.174 -4.82423 0
-126.548 -4.81299 0
-124.923 -4.81526 0
-123.298 -4.81882 0
-121.679 -4.81888 0
-120.055 -4.81964 0
-118.433 -4.817 0
-116.807 -4.81584 0
-115.184 -4.82315 0
-113.565 -4.82041 0
-111.942 -4.81951 0
-110.317 -4.82601 0
-108.696 -4.82303 0
-107.079 -4.82109 0
-105.451 -4.82011 0
-103.829 -4.82127 0
-102.208 -4.82749 0
-100.587 -4.82019 0
-98.9561 -4.81464 0
-97.333 -4.81764 0
-95.7141 -4.82107 0
-94.0957 -4.82411 0
-92.4741 -4.82468 0
-90.8525 -4.81992 0
-89.2289 -4.81536 0
-87.608 -4.81428 0
-85.9849 -4.81911 0
-84.3591 -4.81662 0
-82.7353 -4.82126 0
-81.1126 -4.81979 0
-79.4917 -4.81946 0
-77.871 -4.8206 0
-76.2449 -4.81263 0
-74.6209 -4.81412 0
-72.9992 -4.81527 0
-71.3769 -4.82024 0
-69.7557 -4.81999 0
-68.1332 -4.81861 0
-66.5112 -4.82206 0
-64.888 -4.81808 0
-63.2669 -4.82105 0
-61.6501 -4.81394 0
-60.0223 -4.81573 0
-58.399 -4.81386 0
-56.7745 -4.81465 0
-55.1564 -4.81461 0
-53.5334 -4.8208 0
-51.91 -4.81848 0
-50.2894 -4.82339 0
-48.6699 -4.82184 0
-47.0508 -4.82111 0
-45.4281 -4.82016 0
-43.8014 -4.81807 0
-42.1788 -4.82263 0
-40.5548 -4.82277 0
-38.9308 -4.81784 0
-37.3078 -4.81778 0
-35.6847 -4.82072 0
-34.0622 -4.82025 0
-32.4412 -4.81618 0
-30.8189 -4.81645 0
-29.1987 -4.81542 0
-27.5718 -4.81824 0
-25.9534 -4.81536 0
-24.33 -4.82239 0
-22.7083 -4.82409 0
-21.0876 -4.82207 0
-19.4643 -4.82031 0
-17.841 -4.82358 0
-16.2189 -4.82082 0
-14.5967 -4.82321 0
-12.9765 -4.825 0
-11.3555 -4.82191 0
-9.72843 -4.81714 0
-8.11135 -4.82636 0
-6.48823 -4.82934 0
-4.86768 -4.82547 0
-3.24181 -4.82117 0
-1.62071 -4.82091 0
0 -4.82353 0
-1085.31 106.091 0
-1085.59 95.7627 0
-1085.87 85.5885 0
-1086.13 75.6394 0
-1086.37 65.9373 0
-1086.56 56.5448 0
-1086.71 47.5418 0
-1086.83 39.005 0
-1086.93 30.9793 0
-1086.99 23.4837 0
-1087.01 16.5407 0
-1086.97 10.1711 0
-1086.89 4.39664 0
-1086.79 -0.813122 0
-1086.75 -5.5959 0
-1086.74 -10.1076 0
-1086.64 -14.3118 0
-1086.53 -18.151 0
-1086.39 -21.6119 0
-1086.23 -24.6845 0
-1086.04 -27.3581 0
-1085.84 -29.6464 0
-1085.6 -31.5611 0
-1085.34 -33.1299 0
-1085.04 -34.377 0
-1084.7 -35.3206 0
-1084.32 -35.9901 0
-1083.89 -36.4119 0
-1083.41 -36.6115 0
-1082.87 -36.6049 0
-1082.28 -36.4164 0
-1081.63 -36.0623 0
-1080.93 -35.5553 0
-1080.17 -34.9201 0
-1079.36 -34.1646 0
-1078.49 -33.3017 0
-1077.58 -32.3461 0
-1076.61 -31.3084 0
-1075.59 -30.1995 0
-1074.53 -29.0333 0
-1073.41 -27.8142 0
-1072.25 -26.5548 0
-1071.05 -25.2634 0
-1069.81 -23.9505 0
-1068.53 -22.6133 0
-1067.2 -21.2713 0
-1065.84 -19.9232 0
-1064.45 -18.5762 0
-1063.02 -17.2349 0
-1061.57 -15.9062 0
-1060.08 -14.5913 0
-1058.56 -13.2959 0
-1057.02 -12.0245 0
-1055.45 -10.781 0
-1053.86 -9.56367 0
-1052.25 -8.37807 0
-1050.61 -7.22687 0
-1048.96 -6.11038 0
-1047.29 -5.03417 0
-1045.6 -3.99523 0
-1043.9 -2.99851 0
-1042.18 -2.04448 0
-1040.45 -1.12841 0
-1038.71 -0.258916 0
-1036.96 0.567917 0
-1035.2 1.34882 0
-1033.43 2.08416 0
-1031.65 2.77802 0
-1029.86 3.42877 0
-1028.07 4.03333 0
-1026.28 4.59291 0
-1024.48 5.11072 0
-1022.68 5.58554 0
-1020.87 6.01589 0
-1019.06 6.40387 0
-1017.25 6.75099 0
-1015.44 7.05713 0
-1013.63 7.32313 0
-1011.82 7.54973 0
-1010.01 7.74142 0
-1008.21 7.89366 0
-1006.4 8.00987 0
-1004.6 8.09281 0
-1002.8 8.14084 0
-1001 8.15644 0
-999.212 8.14355 0
-997.423 8.10013 0
-995.639 8.02665 0
-993.861 7.92676 0
-992.086 7.79885 0
-990.317 7.64982 0
-988.553 7.47599 0
-986.797 7.27968 0
-985.045 7.06436 0
-983.299 6.8273 0
-981.558 6.57243 0
-979.825 6.30104 0
-978.098 6.01411 0
-976.377 5.71449 0
-974.661 5.4 0
-972.951 5.07373 0
-971.247 4.73798 0
-969.552 4.39349 0
-967.862 4.04242 0
-966.177 3.68233 0
-964.498 3.31817 0
-962.827 2.94805 0
-961.16 2.57526 0
-959.5 2.19878 0
-957.845 1.82191 0
-956.196 1.44203 0
-954.552 1.06611 0
-952.913 0.690285 0
-951.279 0.31762 0
-949.651 -0.0521803 0
-948.027 -0.416112 0
-946.406 -0.779351 0
-944.79 -1.13484 0
-943.179 -1.48474 0
-941.572 -1.82544 0
-939.968 -2.16132 0
-938.367 -2.48772 0
-936.77 -2.80638 0
-935.176 -3.11729 0
-933.584 -3.41437 0
-931.997 -3.70721 0
-930.413 -3.98704 0
-928.829 -4.25479 0
-927.246 -4.51364 0
-925.667 -4.76103 0
-924.089 -4.9973 0
-922.512 -5.22207 0
-920.937 -5.4368 0
-919.362 -5.63846 0
-917.789 -5.82765 0
-916.218 -6.00732 0
-914.646 -6.17574 0
-913.075 -6.33106 0
-911.505 -6.4731 0
-909.935 -6.60591 0
-908.364 -6.72731 0
-906.795 -6.83725 0
-905.225 -6.93423 0
-903.654 -7.02095 0
-902.082 -7.09585 0
-900.511 -7.15961 0
-898.94 -7.21557 0
-897.368 -7.26079 0
-895.794 -7.29531 0
-894.22 -7.31964 0
-892.644 -7.33607 0
-891.069 -7.34255 0
-889.491 -7.33965 0
-887.911 -7.32881 0
-886.331 -7.30923 0
-884.749 -7.28258 0
-883.166 -7.24672 0
-881.583 -7.20432 0
-879.997 -7.15572 0
-878.412 -7.09988 0
-876.824 -7.03737 0
-875.234 -6.9688 0
-873.642 -6.8958 0
-872.049 -6.81697 0
-870.454 -6.7343 0
-868.856 -6.64504 0
-867.258 -6.55209 0
-865.659 -6.45399 0
-864.055 -6.35266 0
-862.454 -6.25011 0
-860.85 -6.14384 0
-859.244 -6.0351 0
-857.636 -5.92234 0
-856.029 -5.80855 0
-854.418 -5.69495 0
-852.805 -5.57815 0
-851.193 -5.46163 0
-849.578 -5.34372 0
-847.96 -5.22523 0
-846.343 -5.10613 0
-844.723 -4.98522 0
-843.101 -4.86296 0
-841.48 -4.74397 0
-839.859 -4.62471 0
-838.234 -4.50568 0
-836.609 -4.388 0
-834.982 -4.2749 0
-833.354 -4.16045 0
-831.726 -4.04854 0
-830.096 -3.93865 0
-828.464 -3.82756 0
-826.834 -3.72117 0
-825.202 -3.6151 0
-823.57 -3.51177 0
-821.935 -3.41137 0
-820.301 -3.31452 0
-818.666 -3.22024 0
-817.029 -3.12909 0
-815.392 -3.04157 0
-813.757 -2.95589 0
-812.118 -2.87305 0
-810.482 -2.7926 0
-808.843 -2.71751 0
-807.202 -2.64086 0
-805.561 -2.56992 0
-803.922 -2.50639 0
-802.284 -2.44553 0
-800.644 -2.38623 0
-799.003 -2.32629 0
-797.364 -2.27326 0
-795.72 -2.22346 0
-794.081 -2.17805 0
-792.439 -2.13386 0
-790.801 -2.0903 0
-789.161 -2.05578 0
-787.519 -2.02041 0
-785.878 -1.98975 0
-784.238 -1.96219 0
-782.596 -1.93769 0
-780.955 -1.91817 0
-779.314 -1.90076 0
-777.674 -1.88614 0
-776.033 -1.87651 0
-774.394 -1.86653 0
-772.757 -1.85992 0
-771.118 -1.85675 0
-769.479 -1.85482 0
-767.839 -1.85594 0
-766.202 -1.85732 0
-764.563 -1.86246 0
-762.927 -1.87113 0
-761.292 -1.88231 0
-759.655 -1.89233 0
-758.02 -1.91 0
-756.385 -1.92744 0
-754.748 -1.94373 0
-753.112 -1.96236 0
-751.479 -1.98597 0
-749.846 -2.00859 0
-748.213 -2.03585 0
-746.581 -2.06555 0
-744.947 -2.09233 0
-743.314 -2.12416 0
-741.682 -2.15335 0
-740.052 -2.18459 0
-738.421 -2.21775 0
-736.791 -2.24931 0
-735.161 -2.28489 0
-733.531 -2.32121 0
-731.902 -2.35555 0
-730.273 -2.39329 0
-728.643 -2.43136 0
-727.019 -2.47069 0
-725.391 -2.50955 0
-723.766 -2.54915 0
-722.14 -2.58518 0
-720.513 -2.61775 0
-718.889 -2.65703 0
-717.262 -2.6929 0
-715.637 -2.73114 0
-714.015 -2.76647 0
-712.39 -2.80639 0
-710.768 -2.84675 0
-709.145 -2.88244 0
-707.52 -2.92102 0
-705.897 -2.95464 0
-704.273 -2.98727 0
-702.651 -3.02252 0
-701.03 -3.0583 0
-699.41 -3.09431 0
-697.788 -3.1255 0
-696.167 -3.16074 0
-694.547 -3.19263 0
-692.925 -3.22289 0
-691.307 -3.25561 0
-689.686 -3.28336 0
-688.063 -3.31038 0
-686.443 -3.33769 0
-684.824 -3.36539 0
-683.205 -3.39021 0
-681.585 -3.41864 0
-679.966 -3.44117 0
-678.345 -3.46576 0
-676.726 -3.48753 0
-675.11 -3.50886 0
-673.489 -3.52864 0
-671.871 -3.5509 0
-670.251 -3.56962 0
-668.632 -3.58859 0
-667.011 -3.60764 0
-665.396 -3.61987 0
-663.778 -3.63137 0
-662.157 -3.64581 0
-660.539 -3.66148 0
-658.921 -3.67172 0
-657.301 -3.68086 0
-655.68 -3.69277 0
-654.064 -3.69761 0
-652.444 -3.70713 0
-650.824 -3.71266 0
-649.206 -3.71931 0
-647.586 -3.727 0
-645.967 -3.72823 0
-644.347 -3.73189 0
-642.729 -3.73481 0
-641.11 -3.73347 0
-639.49 -3.73634 0
-637.872 -3.73822 0
-636.252 -3.73808 0
-634.633 -3.73224 0
-633.013 -3.73197 0
-631.391 -3.7292 0
-629.773 -3.72774 0
-628.151 -3.72218 0
-626.53 -3.71892 0
-624.912 -3.71218 0
-623.291 -3.70789 0
-621.671 -3.70401 0
-620.05 -3.69549 0
-618.431 -3.68419 0
-616.81 -3.67586 0
-615.187 -3.66806 0
-613.565 -3.66053 0
-611.943 -3.65556 0
-610.321 -3.64516 0
-608.7 -3.63131 0
-607.078 -3.61956 0
-605.456 -3.60959 0
-603.836 -3.59776 0
-602.211 -3.58494 0
-600.592 -3.57483 0
-598.969 -3.5624 0
-597.346 -3.54906 0
-595.724 -3.53939 0
-594.098 -3.52531 0
-592.474 -3.5079 0
-590.852 -3.49666 0
-589.227 -3.48409 0
-587.602 -3.47459 0
-585.978 -3.46198 0
-584.354 -3.44886 0
-582.731 -3.43448 0
-581.107 -3.42064 0
-579.484 -3.41161 0
-577.86 -3.39884 0
-576.238 -3.38443 0
-574.609 -3.37145 0
-572.986 -3.35809 0
-571.363 -3.34778 0
-569.74 -3.33853 0
-568.115 -3.32727 0
-566.493 -3.31476 0
-564.867 -3.30018 0
-563.241 -3.29128 0
-561.617 -3.28297 0
-559.991 -3.26959 0
-558.368 -3.25794 0
-556.741 -3.24899 0
-555.116 -3.24196 0
-553.489 -3.22878 0
-551.865 -3.22183 0
-550.24 -3.21274 0
-548.612 -3.20284 0
-546.988 -3.19442 0
-545.361 -3.18469 0
-543.735 -3.17751 0
-542.113 -3.16964 0
-540.486 -3.16088 0
-538.864 -3.15765 0
-537.238 -3.15231 0
-535.613 -3.1476 0
-533.989 -3.14157 0
-532.362 -3.13573 0
-530.736 -3.13144 0
-529.108 -3.12337 0
-527.483 -3.11987 0
-525.858 -3.1138 0
-524.235 -3.11108 0
-522.612 -3.10527 0
-520.987 -3.10208 0
-519.365 -3.09593 0
-517.739 -3.09324 0
-516.115 -3.08913 0
-514.49 -3.08711 0
-512.864 -3.08444 0
-511.238 -3.08336 0
-509.614 -3.08037 0
-507.99 -3.07417 0
-506.365 -3.07053 0
-504.74 -3.07108 0
-503.113 -3.07148 0
-501.488 -3.07469 0
-499.861 -3.07233 0
-498.237 -3.07168 0
-496.615 -3.07418 0
-494.989 -3.07449 0
-493.363 -3.07677 0
-491.738 -3.07734 0
-490.114 -3.08037 0
-488.492 -3.07868 0
-486.868 -3.07962 0
-485.242 -3.08448 0
-483.617 -3.08598 0
-481.992 -3.08898 0
-480.369 -3.08919 0
-478.745 -3.09413 0
-477.121 -3.09317 0
-475.494 -3.09541 0
-473.87 -3.09673 0
-472.245 -3.09845 0
-470.622 -3.10031 0
-468.997 -3.10601 0
-467.37 -3.1103 0
-465.747 -3.11198 0
-464.125 -3.11512 0
-462.499 -3.12165 0
-460.875 -3.12869 0
-459.252 -3.131 0
-457.628 -3.13563 0
-456.004 -3.13624 0
-454.377 -3.14402 0
-452.754 -3.14707 0
-451.134 -3.15468 0
-449.509 -3.15733 0
-447.886 -3.16094 0
-446.264 -3.16655 0
-444.642 -3.16617 0
-443.016 -3.16994 0
-441.395 -3.17745 0
-439.773 -3.17563 0
-438.146 -3.18107 0
-436.525 -3.18223 0
-434.901 -3.18635 0
-433.275 -3.19105 0
-431.651 -3.1961 0
-430.027 -3.19758 0
-428.407 -3.20324 0
-426.784 -3.20237 0
-425.16 -3.21229 0
-423.539 -3.21363 0
-421.914 -3.21374 0
-420.291 -3.21957 0
-418.668 -3.22464 0
-417.044 -3.22742 0
-415.42 -3.22899 0
-413.796 -3.23595 0
-412.174 -3.23593 0
-410.553 -3.23758 0
-408.931 -3.23924 0
-407.303 -3.24363 0
-405.676 -3.24931 0
-404.056 -3.25247 0
-402.435 -3.25328 0
-400.811 -3.25887 0
-399.186 -3.25442 0
-397.562 -3.25733 0
-395.941 -3.26405 0
-394.319 -3.26078 0
-392.695 -3.26262 0
-391.07 -3.26425 0
-389.448 -3.27263 0
-387.826 -3.26768 0
-386.204 -3.27179 0
-384.58 -3.27847 0
-382.957 -3.28038 0
-381.334 -3.28095 0
-379.71 -3.27897 0
-378.088 -3.27821 0
-376.462 -3.28228 0
-374.838 -3.27973 0
-373.216 -3.27662 0
-371.596 -3.28004 0
-369.974 -3.28385 0
-368.349 -3.28869 0
-366.729 -3.28836 0
-365.107 -3.28752 0
-363.485 -3.28648 0
-361.863 -3.28723 0
-360.242 -3.29044 0
-358.617 -3.2957 0
-356.995 -3.28671 0
-355.375 -3.28911 0
-353.748 -3.28893 0
-352.13 -3.28622 0
-350.504 -3.28647 0
-348.883 -3.28586 0
-347.257 -3.28605 0
-345.636 -3.28566 0
-344.012 -3.28406 0
-342.39 -3.28193 0
-340.769 -3.28474 0
-339.141 -3.28208 0
-337.516 -3.28637 0
-335.896 -3.28608 0
-334.274 -3.28534 0
-332.654 -3.28282 0
-331.027 -3.28258 0
-329.4 -3.2795 0
-327.779 -3.27605 0
-326.159 -3.27431 0
-324.536 -3.27008 0
-322.914 -3.27098 0
-321.29 -3.27182 0
-319.67 -3.2691 0
-318.045 -3.274 0
-316.423 -3.2723 0
-314.802 -3.26794 0
-313.174 -3.26428 0
-311.555 -3.26524 0
-309.932 -3.26485 0
-308.31 -3.26451 0
-306.687 -3.26018 0
-305.062 -3.25915 0
-303.441 -3.25198 0
-301.82 -3.2555 0
-300.198 -3.25241 0
-298.574 -3.25409 0
-296.951 -3.25385 0
-295.328 -3.25366 0
-293.705 -3.25425 0
-292.083 -3.25532 0
-290.458 -3.25297 0
-288.834 -3.24961 0
-287.21 -3.24807 0
-285.586 -3.24525 0
-283.961 -3.24233 0
-282.338 -3.24426 0
-280.715 -3.24027 0
-279.093 -3.24 0
-277.469 -3.23695 0
-275.847 -3.24048 0
-274.226 -3.23756 0
-272.604 -3.23679 0
-270.981 -3.23939 0
-269.357 -3.24004 0
-267.735 -3.23545 0
-266.11 -3.23193 0
-264.486 -3.23039 0
-262.861 -3.22589 0
-261.238 -3.22637 0
-259.617 -3.22278 0
-257.995 -3.22627 0
-256.373 -3.22579 0
-254.749 -3.22577 0
-253.128 -3.22114 0
-251.506 -3.21856 0
-249.879 -3.21576 0
-248.256 -3.21213 0
-246.635 -3.21671 0
-245.009 -3.2158 0
-243.385 -3.21317 0
-241.763 -3.21412 0
-240.139 -3.21432 0
-238.515 -3.21707 0
-236.891 -3.22014 0
-235.27 -3.2152 0
-233.646 -3.21607 0
-232.02 -3.21371 0
-230.394 -3.21214 0
-228.771 -3.21833 0
-227.151 -3.21632 0
-225.529 -3.21469 0
-223.905 -3.21493 0
-222.285 -3.21567 0
-220.661 -3.21227 0
-219.037 -3.2117 0
-217.413 -3.20947 0
-215.789 -3.20929 0
-214.171 -3.21045 0
-212.545 -3.20867 0
-210.921 -3.20434 0
-209.304 -3.2061 0
-207.678 -3.20854 0
-206.057 -3.20454 0
-204.435 -3.20339 0
-202.81 -3.20183 0
-201.185 -3.20336 0
-199.565 -3.2013 0
-197.939 -3.20016 0
-196.315 -3.2069 0
-194.688 -3.20475 0
-193.068 -3.20775 0
-191.449 -3.20234 0
-189.825 -3.20224 0
-188.203 -3.20508 0
-186.58 -3.20413 0
-184.958 -3.20413 0
-183.336 -3.20568 0
-181.711 -3.21088 0
-180.091 -3.21171 0
-178.463 -3.20799 0
-176.841 -3.20561 0
-175.218 -3.20608 0
-173.594 -3.20493 0
-171.975 -3.20471 0
-170.355 -3.20539 0
-168.731 -3.20221 0
-167.11 -3.20404 0
-165.488 -3.20726 0
-163.87 -3.20226 0
-162.246 -3.20156 0
-160.622 -3.20695 0
-159 -3.20597 0
-157.377 -3.20605 0
-155.752 -3.19899 0
-154.126 -3.20432 0
-152.506 -3.2007 0
-150.885 -3.20778 0
-149.26 -3.20747 0
-147.641 -3.20986 0
-146.019 -3.21213 0
-144.398 -3.21203 0
-142.779 -3.21206 0
-141.152 -3.21078 0
-139.533 -3.21203 0
-137.907 -3.2138 0
-136.282 -3.21245 0
-134.661 -3.21128 0
-133.038 -3.21009 0
-131.415 -3.20516 0
-129.792 -3.20836 0
-128.171 -3.20905 0
-126.547 -3.21141 0
-124.926 -3.21001 0
-123.301 -3.21243 0
-121.678 -3.20992 0
-120.053 -3.20786 0
-118.433 -3.20869 0
-116.812 -3.21047 0
-115.186 -3.21277 0
-113.561 -3.21281 0
-111.94 -3.21399 0
-110.319 -3.21376 0
-108.696 -3.21216 0
-107.073 -3.21176 0
-105.451 -3.21036 0
-103.83 -3.21251 0
-102.209 -3.21508 0
-100.584 -3.20801 0
-98.9633 -3.20669 0
-97.3412 -3.20745 0
-95.7191 -3.21461 0
-94.0962 -3.21488 0
-92.4737 -3.21593 0
-90.853 -3.21076 0
-89.229 -3.20645 0
-87.6034 -3.20653 0
-85.9796 -3.20733 0
-84.3597 -3.21006 0
-82.7364 -3.20871 0
-81.1136 -3.20946 0
-79.4907 -3.21199 0
-77.868 -3.21088 0
-76.2466 -3.20426 0
-74.6267 -3.20725 0
-73.0032 -3.20477 0
-71.378 -3.21139 0
-69.7557 -3.20994 0
-68.1352 -3.21242 0
-66.5131 -3.21236 0
-64.8897 -3.20925 0
-63.2669 -3.20825 0
-61.6449 -3.20612 0
-60.0199 -3.20622 0
-58.3989 -3.20532 0
-56.7787 -3.20502 0
-55.1555 -3.20805 0
-53.5326 -3.21018 0
-51.9127 -3.21071 0
-50.2901 -3.21581 0
-48.6704 -3.21703 0
-47.0449 -3.2128 0
-45.424 -3.21571 0
-43.8025 -3.21116 0
-42.1787 -3.21451 0
-40.5532 -3.20848 0
-38.9305 -3.21114 0
-37.3056 -3.21121 0
-35.6873 -3.21348 0
-34.0618 -3.20658 0
-32.4421 -3.21047 0
-30.8186 -3.21076 0
-29.1963 -3.20775 0
-27.5778 -3.20923 0
-25.9516 -3.21018 0
-24.3341 -3.21374 0
-22.7088 -3.2183 0
-21.0856 -3.21418 0
-19.4638 -3.21432 0
-17.8413 -3.21229 0
-16.2193 -3.20987 0
-14.6016 -3.21302 0
-12.9776 -3.21594 0
-11.35 -3.21342 0
-9.73278 -3.21271 0
-8.11227 -3.21814 0
-6.487 -3.21871 0
-4.86114 -3.21469 0
-3.23931 -3.21468 0
-1.62167 -3.2157 0
0 -3.21709 0
-1095.84 106.864 0
-1095.73 96.3189 0
-1095.78 86.1399 0
-1095.79 76.1963 0
-1095.72 66.5207 0
-1095.57 57.1543 0
-1095.34 48.1672 0
-1095.03 39.6296 0
-1094.65 31.592 0
-1094.22 24.0957 0
-1093.74 17.1565 0
-1093.2 10.7945 0
-1092.64 5.00442 0
-1092.11 -0.292976 0
-1091.64 -5.18033 0
-1091.23 -9.70102 0
-1090.81 -13.8763 0
-1090.33 -17.7081 0
-1089.82 -21.1597 0
-1089.28 -24.2242 0
-1088.72 -26.8963 0
-1088.14 -29.1819 0
-1087.54 -31.0966 0
-1086.94 -32.6528 0
-1086.32 -33.8811 0
-1085.69 -34.8056 0
-1085.04 -35.4457 0
-1084.36 -35.8349 0
-1083.65 -35.9974 0
-1082.92 -35.9478 0
-1082.14 -35.7149 0
-1081.33 -35.3155 0
-1080.48 -34.7652 0
-1079.59 -34.0818 0
-1078.66 -33.2802 0
-1077.7 -32.3707 0
-1076.69 -31.3709 0
-1075.64 -30.2878 0
-1074.55 -29.1368 0
-1073.43 -27.9236 0
-1072.27 -26.6628 0
-1071.07 -25.3641 0
-1069.83 -24.0334 0
-1068.57 -22.6794 0
-1067.27 -21.3101 0
-1065.93 -19.9319 0
-1064.57 -18.5503 0
-1063.18 -17.172 0
-1061.76 -15.8031 0
-1060.31 -14.4432 0
-1058.83 -13.1033 0
-1057.34 -11.7815 0
-1055.82 -10.4868 0
-1054.28 -9.2182 0
-1052.71 -7.98069 0
-1051.13 -6.7752 0
-1049.52 -5.60632 0
-1047.9 -4.47273 0
-1046.27 -3.38065 0
-1044.62 -2.32723 0
-1042.96 -1.31437 0
-1041.28 -0.346889 0
-1039.59 0.578064 0
-1037.89 1.45675 0
-1036.18 2.29485 0
-1034.46 3.08381 0
-1032.73 3.82748 0
-1031 4.52933 0
-1029.26 5.18376 0
-1027.51 5.79391 0
-1025.75 6.35919 0
-1024 6.87976 0
-1022.23 7.35634 0
-1020.47 7.78958 0
-1018.7 8.17912 0
-1016.93 8.52674 0
-1015.16 8.83351 0
-1013.39 9.10007 0
-1011.62 9.32646 0
-1009.84 9.51669 0
-1008.07 9.66776 0
-1006.3 9.78338 0
-1004.53 9.86182 0
-1002.76 9.90687 0
-1001 9.91957 0
-999.235 9.90275 0
-997.475 9.85482 0
-995.719 9.77818 0
-993.965 9.67431 0
-992.215 9.54365 0
-990.47 9.38907 0
-988.728 9.20987 0
-986.991 9.00807 0
-985.26 8.78728 0
-983.532 8.54581 0
-981.809 8.28491 0
-980.092 8.00831 0
-978.38 7.71523 0
-976.67 7.41029 0
-974.968 7.09047 0
-973.269 6.76058 0
-971.576 6.4176 0
-969.887 6.06661 0
-968.204 5.71093 0
-966.525 5.347 0
-964.852 4.97523 0