<?xml version="1.0"?>
<VTKFile type="StructuredGrid"  version="0.1" byte_order="LittleEndian" compressor="vtkZLibDataCompressor">
  <StructuredGrid WholeExtent="0 700 0 30 0 0">
    <Piece Extent="0 700 0 30 0 0">
      <PointData Vectors="Velocity">
        <DataArray type="Float32" Name="Velocity" NumberOfComponents="3" format="ascii">
-1036.8 78.5079 0
-1037.32 69.7852 0
-1037.9 61.1935 0
-1038.49 52.8171 0
-1039.11 44.7142 0
-1039.77 36.9667 0
-1040.47 29.6522 0
-1041.17 22.8157 0
-1041.86 16.4818 0
-1042.52 10.6674 0
-1043.14 5.39406 0
-1043.7 0.679151 0
-1044.15 -3.48664 0
-1044.43 -7.21488 0
-1044.67 -10.6715 0
-1044.87 -13.892 0
-1045.14 -16.7759 0
-1045.38 -19.2836 0
-1045.58 -21.42 0
-1045.75 -23.1964 0
-1045.88 -24.6282 0
-1045.95 -25.739 0
-1045.96 -26.5557 0
-1045.89 -27.1054 0
-1045.74 -27.4183 0
-1045.51 -27.5196 0
-1045.2 -27.4344 0
-1044.81 -27.1843 0
-1044.33 -26.7875 0
-1043.78 -26.2644 0
-1043.16 -25.6311 0
-1042.46 -24.9031 0
-1041.69 -24.0933 0
-1040.85 -23.2143 0
-1039.94 -22.2803 0
-1038.98 -21.2991 0
-1037.95 -20.2838 0
-1036.87 -19.2421 0
-1035.74 -18.1814 0
-1034.55 -17.1104 0
-1033.32 -16.0365 0
-1032.04 -14.9656 0
-1030.72 -13.9016 0
-1029.35 -12.8518 0
-1027.96 -11.8199 0
-1026.52 -10.8099 0
-1025.06 -9.82523 0
-1023.56 -8.86942 0
-1022.04 -7.94544 0
-1020.49 -7.05341 0
-1018.92 -6.19782 0
-1017.33 -5.38013 0
-1015.72 -4.60042 0
-1014.08 -3.85881 0
-1012.44 -3.15991 0
-1010.78 -2.50195 0
-1009.1 -1.88362 0
-1007.42 -1.30924 0
-1005.72 -0.774312 0
-1004.02 -0.283134 0
-1002.3 0.168656 0
-1000.58 0.578515 0
-998.862 0.94902 0
-997.135 1.28031 0
-995.404 1.57302 0
-993.671 1.82701 0
-991.935 2.04546 0
-990.201 2.22761 0
-988.466 2.37651 0
-986.734 2.48939 0
-985.002 2.5736 0
-983.274 2.62649 0
-981.547 2.65021 0
-979.826 2.64482 0
-978.108 2.61199 0
-976.393 2.55513 0
-974.684 2.47333 0
-972.981 2.37115 0
-971.282 2.2455 0
-969.59 2.10154 0
-967.905 1.93873 0
-966.225 1.76068 0
-964.552 1.56636 0
-962.886 1.35794 0
-961.226 1.13797 0
-959.573 0.905909 0
-957.927 0.665178 0
-956.289 0.414389 0
-954.657 0.155871 0
-953.031 -0.107485 0
-951.413 -0.377274 0
-949.801 -0.650333 0
-948.195 -0.927441 0
-946.596 -1.2032 0
-945.004 -1.48227 0
-943.418 -1.76092 0
-941.837 -2.03642 0
-940.263 -2.31004 0
-938.693 -2.5816 0
-937.129 -2.84872 0
-935.569 -3.11141 0
-934.015 -3.36845 0
-932.466 -3.62099 0
-930.921 -3.8667 0
-929.381 -4.10525 0
-927.842 -4.3357 0
-926.309 -4.55888 0
-924.779 -4.77267 0
-923.251 -4.97686 0
-921.726 -5.17239 0
-920.204 -5.35785 0
-918.686 -5.53646 0
-917.166 -5.70329 0
-915.65 -5.86141 0
-914.136 -6.01098 0
-912.622 -6.14793 0
-911.11 -6.2743 0
-909.598 -6.39119 0
-908.086 -6.49843 0
-906.575 -6.59441 0
-905.065 -6.68136 0
-903.555 -6.75894 0
-902.045 -6.82687 0
-900.533 -6.88606 0
-899.021 -6.93355 0
-897.509 -6.97324 0
-895.995 -7.0039 0
-894.482 -7.02661 0
-892.968 -7.04074 0
-891.452 -7.04546 0
-889.935 -7.0459 0
-888.416 -7.03613 0
-886.896 -7.01908 0
-885.374 -6.99516 0
-883.852 -6.96845 0
-882.329 -6.93006 0
-880.802 -6.88936 0
-879.273 -6.84399 0
-877.744 -6.79544 0
-876.213 -6.73885 0
-874.68 -6.67717 0
-873.146 -6.61154 0
-871.609 -6.54246 0
-870.07 -6.47059 0
-868.531 -6.39731 0
-866.989 -6.32089 0
-865.442 -6.24301 0
-863.897 -6.1621 0
-862.352 -6.08172 0
-860.801 -5.99267 0
-859.25 -5.90863 0
-857.698 -5.8212 0
-856.142 -5.73259 0
-854.587 -5.64471 0
-853.03 -5.55745 0
-851.47 -5.4731 0
-849.911 -5.3869 0
-848.349 -5.30255 0
-846.784 -5.2181 0
-845.219 -5.13427 0
-843.656 -5.05199 0
-842.089 -4.97165 0
-840.521 -4.89079 0
-838.95 -4.81281 0
-837.381 -4.73956 0
-835.81 -4.66607 0
-834.24 -4.59614 0
-832.666 -4.52575 0
-831.092 -4.46062 0
-829.517 -4.39547 0
-827.942 -4.3347 0
-826.365 -4.27552 0
-824.789 -4.21823 0
-823.213 -4.1651 0
-821.638 -4.11346 0
-820.061 -4.06728 0
-818.484 -4.02279 0
-816.905 -3.98211 0
-815.328 -3.94484 0
-813.753 -3.90953 0
-812.173 -3.87386 0
-810.593 -3.84279 0
-809.017 -3.81502 0
-807.439 -3.78914 0
-805.86 -3.76648 0
-804.283 -3.74911 0
-802.707 -3.73305 0
-801.129 -3.71973 0
-799.55 -3.70653 0
-797.973 -3.69842 0
-796.397 -3.69307 0
-794.821 -3.68686 0
-793.244 -3.68405 0
-791.667 -3.68476 0
-790.091 -3.68772 0
-788.517 -3.69315 0
-786.941 -3.69773 0
-785.367 -3.7069 0
-783.794 -3.71686 0
-782.22 -3.72982 0
-780.647 -3.74206 0
-779.075 -3.76008 0
-777.502 -3.77229 0
-775.931 -3.79165 0
-774.361 -3.81446 0
-772.789 -3.83189 0
-771.22 -3.85722 0
-769.651 -3.8794 0
-768.082 -3.90549 0
-766.511 -3.92675 0
-764.944 -3.95355 0
-763.378 -3.98139 0
-761.811 -4.00868 0
-760.244 -4.0353 0
-758.677 -4.06156 0
-757.11 -4.09096 0
-755.546 -4.11725 0
-753.98 -4.14462 0
-752.417 -4.17618 0
-750.854 -4.20621 0
-749.29 -4.23628 0
-747.729 -4.26271 0
-746.169 -4.29074 0
-744.606 -4.31796 0
-743.045 -4.34312 0
-741.484 -4.37343 0
-739.922 -4.40056 0
-738.362 -4.42902 0
-736.802 -4.45615 0
-735.243 -4.4809 0
-733.684 -4.50348 0
-732.124 -4.5252 0
-730.565 -4.55046 0
-729.004 -4.57416 0
-727.443 -4.59746 0
-725.886 -4.6171 0
-724.328 -4.63978 0
-722.771 -4.65929 0
-721.213 -4.67791 0
-719.655 -4.69431 0
-718.097 -4.71359 0
-716.54 -4.73003 0
-714.983 -4.74926 0
-713.424 -4.7641 0
-711.867 -4.7783 0
-710.31 -4.79069 0
-708.754 -4.79958 0
-707.198 -4.81341 0
-705.641 -4.826 0
-704.083 -4.83519 0
-702.527 -4.84292 0
-700.969 -4.85472 0
-699.414 -4.86059 0
-697.86 -4.86377 0
-696.301 -4.86876 0
-694.743 -4.87153 0
-693.184 -4.87667 0
-691.624 -4.8784 0
-690.063 -4.88355 0
-688.507 -4.88501 0
-686.953 -4.88747 0
-685.397 -4.88668 0
-683.841 -4.88651 0
-682.282 -4.88423 0
-680.723 -4.88362 0
-679.166 -4.87959 0
-677.609 -4.87739 0
-676.048 -4.87499 0
-674.49 -4.86818 0
-672.933 -4.86504 0
-671.372 -4.8623 0
-669.813 -4.8569 0
-668.254 -4.84939 0
-666.696 -4.84708 0
-665.137 -4.84044 0
-663.575 -4.8325 0
-662.014 -4.82256 0
-660.453 -4.81748 0
-658.892 -4.81026 0
-657.334 -4.80328 0
-655.775 -4.79518 0
-654.215 -4.78457 0
-652.657 -4.77849 0
-651.094 -4.76957 0
-649.534 -4.75782 0
-647.976 -4.75199 0
-646.414 -4.74076 0
-644.846 -4.7322 0
-643.282 -4.72104 0
-641.725 -4.71352 0
-640.165 -4.70506 0
-638.603 -4.69671 0
-637.043 -4.68625 0
-635.48 -4.67548 0
-633.914 -4.67102 0
-632.352 -4.66167 0
-630.791 -4.65539 0
-629.229 -4.64455 0
-627.666 -4.63759 0
-626.105 -4.62971 0
-624.539 -4.61983 0
-622.979 -4.61299 0
-621.415 -4.6068 0
-619.853 -4.59899 0
-618.289 -4.59184 0
-616.729 -4.58405 0
-615.165 -4.57928 0
-613.6 -4.57052 0
-612.039 -4.56289 0
-610.475 -4.55746 0
-608.911 -4.5505 0
-607.347 -4.54465 0
-605.78 -4.54399 0
-604.217 -4.53549 0
-602.653 -4.53014 0
-601.089 -4.52753 0
-599.525 -4.52395 0
-597.964 -4.51665 0
-596.403 -4.51388 0
-594.841 -4.51214 0
-593.274 -4.50697 0
-591.709 -4.50229 0
-590.141 -4.49785 0
-588.577 -4.4988 0
-587.018 -4.50256 0
-585.457 -4.50026 0
-583.892 -4.4994 0
-582.329 -4.49598 0
-580.768 -4.48943 0
-579.206 -4.48707 0
-577.641 -4.48919 0
-576.074 -4.48873 0
-574.512 -4.48831 0
-572.949 -4.49184 0
-571.387 -4.49229 0
-569.823 -4.49385 0
-568.261 -4.4952 0
-566.7 -4.49413 0
-565.136 -4.49144 0
-563.575 -4.49339 0
-562.009 -4.49734 0
-560.443 -4.49872 0
-558.883 -4.50158 0
-557.322 -4.50559 0
-555.763 -4.50534 0
-554.199 -4.5081 0
-552.635 -4.5127 0
-551.069 -4.51228 0
-549.508 -4.51631 0
-547.944 -4.517 0
-546.383 -4.52218 0
-544.82 -4.52469 0
-543.258 -4.52833 0
-541.698 -4.53319 0
-540.135 -4.53382 0
-538.572 -4.53538 0
-537.012 -4.5385 0
-535.447 -4.54343 0
-533.883 -4.54617 0
-532.323 -4.55137 0
-530.762 -4.55195 0
-529.198 -4.56084 0
-527.639 -4.56021 0
-526.075 -4.56082 0
-524.514 -4.56577 0
-522.952 -4.56963 0
-521.389 -4.57654 0
-519.826 -4.57329 0
-518.266 -4.57892 0
-516.706 -4.58008 0
-515.146 -4.58164 0
-513.583 -4.58545 0
-512.023 -4.59147 0
-510.46 -4.59282 0
-508.9 -4.59492 0
-507.337 -4.59742 0
-505.773 -4.60372 0
-504.211 -4.60612 0
-502.653 -4.61009 0
-501.091 -4.60857 0
-499.529 -4.61248 0
-497.967 -4.61074 0
-496.401 -4.61293 0
-494.842 -4.61622 0
-493.28 -4.61751 0
-491.721 -4.62209 0
-490.163 -4.62496 0
-488.601 -4.63005 0
-487.038 -4.62817 0
-485.475 -4.63176 0
-483.916 -4.63087 0
-482.356 -4.62832 0
-480.796 -4.62926 0
-479.234 -4.62771 0
-477.675 -4.63337 0
-476.108 -4.63319 0
-474.55 -4.64185 0
-472.988 -4.6439 0
-471.428 -4.64148 0
-469.869 -4.64166 0
-468.309 -4.6455 0
-466.749 -4.64714 0
-465.185 -4.64278 0
-463.627 -4.64339 0
-462.066 -4.64616 0
-460.501 -4.64868 0
-458.943 -4.6438 0
-457.379 -4.64696 0
-455.819 -4.64905 0
-454.257 -4.65395 0
-452.696 -4.65123 0
-451.129 -4.65084 0
-449.568 -4.65011 0
-448.009 -4.65 0
-446.452 -4.65113 0
-444.887 -4.64991 0
-443.331 -4.65053 0
-441.772 -4.64539 0
-440.206 -4.64362 0
-438.648 -4.6432 0
-437.086 -4.64431 0
-435.527 -4.64592 0
-433.962 -4.64551 0
-432.401 -4.64455 0
-430.841 -4.64199 0
-429.281 -4.64279 0
-427.716 -4.63824 0
-426.154 -4.63681 0
-424.591 -4.63955 0
-423.032 -4.64045 0
-421.471 -4.63922 0
-419.914 -4.63925 0
-418.352 -4.63264 0
-416.789 -4.63419 0
-415.225 -4.62886 0
-413.666 -4.63059 0
-412.104 -4.63109 0
-410.542 -4.62949 0
-408.981 -4.62935 0
-407.417 -4.62539 0
-405.854 -4.62371 0
-404.292 -4.6198 0
-402.732 -4.62561 0
-401.171 -4.62005 0
-399.61 -4.62202 0
-398.048 -4.62544 0
-396.487 -4.62283 0
-394.924 -4.61929 0
-393.363 -4.6207 0
-391.799 -4.61599 0
-390.241 -4.61947 0
-388.678 -4.61724 0
-387.123 -4.61536 0
-385.56 -4.6121 0
-383.997 -4.61244 0
-382.435 -4.61502 0
-380.873 -4.61407 0
-379.309 -4.61335 0
-377.748 -4.60814 0
-376.188 -4.61107 0
-374.626 -4.60574 0
-373.061 -4.59697 0
-371.505 -4.59978 0
-369.946 -4.60105 0
-368.383 -4.60272 0
-366.818 -4.60208 0
-365.253 -4.60074 0
-363.692 -4.60123 0
-362.132 -4.5937 0
-360.57 -4.59562 0
-359.006 -4.59799 0
-357.444 -4.59964 0
-355.883 -4.60157 0
-354.322 -4.60519 0
-352.759 -4.60179 0
-351.196 -4.59773 0
-349.637 -4.59948 0
-348.076 -4.59808 0
-346.518 -4.59504 0
-344.954 -4.59303 0
-343.395 -4.60111 0
-341.835 -4.59695 0
-340.271 -4.59525 0
-338.708 -4.59321 0
-337.149 -4.59994 0
-335.586 -4.59903 0
-334.026 -4.59368 0
-332.466 -4.59671 0
-330.905 -4.59527 0
-329.342 -4.59666 0
-327.78 -4.59434 0
-326.218 -4.60006 0
-324.661 -4.59716 0
-323.096 -4.5966 0
-321.541 -4.60344 0
-319.98 -4.59804 0
-318.419 -4.60044 0
-316.856 -4.59021 0
-315.293 -4.59793 0
-313.729 -4.59406 0
-312.167 -4.59321 0
-310.61 -4.5996 0
-309.044 -4.59449 0
-307.484 -4.59798 0
-305.918 -4.59428 0
-304.356 -4.60227 0
-302.795 -4.60035 0
-301.235 -4.59944 0
-299.677 -4.59893 0
-298.115 -4.59898 0
-296.558 -4.5947 0
-294.994 -4.60033 0
-293.437 -4.60137 0
-291.872 -4.59316 0
-290.309 -4.59488 0
-288.744 -4.59683 0
-287.183 -4.6008 0
-285.616 -4.60047 0
-284.055 -4.60399 0
-282.494 -4.60092 0
-280.931 -4.60247 0
-279.372 -4.60334 0
-277.812 -4.60271 0
-276.25 -4.60939 0
-274.692 -4.60445 0
-273.137 -4.60844 0
-271.572 -4.60275 0
-270.014 -4.608 0
-268.456 -4.60662 0
-266.892 -4.59901 0
-265.329 -4.60844 0
-263.772 -4.60689 0
-262.209 -4.60766 0
-260.655 -4.60509 0
-259.088 -4.60693 0
-257.531 -4.60884 0
-255.97 -4.60682 0
-254.41 -4.61127 0
-252.843 -4.6068 0
-251.283 -4.60876 0
-249.721 -4.60833 0
-248.162 -4.60715 0
-246.596 -4.60785 0
-245.039 -4.60704 0
-243.478 -4.60362 0
-241.913 -4.60379 0
-240.349 -4.60523 0
-238.786 -4.60702 0
-237.23 -4.60537 0
-235.676 -4.6103 0
-234.111 -4.60922 0
-232.548 -4.60742 0
-230.985 -4.60842 0
-229.43 -4.60892 0
-227.866 -4.609 0
-226.302 -4.6088 0
-224.745 -4.60786 0
-223.179 -4.60773 0
-221.62 -4.60847 0
-220.058 -4.60851 0
-218.495 -4.60576 0
-216.936 -4.60794 0
-215.377 -4.60779 0
-213.815 -4.60707 0
-212.255 -4.60996 0
-210.696 -4.61319 0
-209.134 -4.60879 0
-207.571 -4.60557 0
-206.007 -4.60738 0
-204.447 -4.60661 0
-202.889 -4.60635 0
-201.326 -4.60564 0
-199.768 -4.60586 0
-198.206 -4.60252 0
-196.645 -4.60572 0
-195.088 -4.60899 0
-193.523 -4.60572 0
-191.959 -4.60596 0
-190.399 -4.60673 0
-188.836 -4.60437 0
-187.277 -4.60552 0
-185.717 -4.60632 0
-184.157 -4.60883 0
-182.592 -4.60986 0
-181.035 -4.6121 0
-179.476 -4.61386 0
-177.914 -4.61088 0
-176.353 -4.60815 0
-174.794 -4.60659 0
-173.23 -4.60371 0
-171.671 -4.60774 0
-170.112 -4.60786 0
-168.555 -4.60911 0
-166.993 -4.61142 0
-165.428 -4.60913 0
-163.868 -4.61011 0
-162.308 -4.61073 0
-160.743 -4.60902 0
-159.182 -4.61247 0
-157.619 -4.60994 0
-156.06 -4.60711 0
-154.501 -4.60851 0
-152.94 -4.6045 0
-151.378 -4.60532 0
-149.818 -4.60467 0
-148.259 -4.60922 0
-146.7 -4.61115 0
-145.135 -4.61253 0
-143.573 -4.61136 0
-142.017 -4.60603 0
-140.456 -4.60409 0
-138.895 -4.60502 0
-137.334 -4.60441 0
-135.774 -4.60703 0
-134.213 -4.6028 0
-132.649 -4.6069 0
-131.089 -4.60637 0
-129.528 -4.60719 0
-127.968 -4.60863 0
-126.406 -4.60998 0
-124.846 -4.60483 0
-123.286 -4.60733 0
-121.723 -4.60608 0
-120.165 -4.60575 0
-118.603 -4.60818 0
-117.041 -4.60211 0
-115.48 -4.60057 0
-113.92 -4.60457 0
-112.357 -4.60539 0
-110.798 -4.60948 0
-109.239 -4.60716 0
-107.677 -4.60359 0
-106.12 -4.60013 0
-104.561 -4.60284 0
-102.997 -4.60812 0
-101.433 -4.59909 0
-99.8724 -4.60387 0
-98.3114 -4.60293 0
-96.754 -4.60266 0
-95.1856 -4.60198 0
-93.6228 -4.59406 0
-92.0629 -4.59992 0
-90.5073 -4.60459 0
-88.9525 -4.60466 0
-87.3913 -4.60644 0
-85.831 -4.59865 0
-84.2709 -4.60414 0
-82.7139 -4.60419 0
-81.1549 -4.6064 0
-79.5922 -4.60579 0
-78.0308 -4.60918 0
-76.472 -4.60823 0
-74.9089 -4.59966 0
-73.3446 -4.60471 0
-71.7882 -4.60451 0
-70.222 -4.60636 0
-68.6653 -4.60182 0
-67.1075 -4.60342 0
-65.5392 -4.60016 0
-63.985 -4.60336 0
-62.4206 -4.60095 0
-60.86 -4.60128 0
-59.3004 -4.60151 0
-57.7425 -4.59992 0
-56.1799 -4.60305 0
-54.6187 -4.60024 0
-53.0597 -4.60204 0
-51.4984 -4.60132 0
-49.9372 -4.604 0
-48.3784 -4.60784 0
-46.8159 -4.60807 0
-45.2532 -4.6093 0
-43.6865 -4.60855 0
-42.1285 -4.61048 0
-40.571 -4.60644 0
-39.0126 -4.60953 0
-37.452 -4.6129 0
-35.8926 -4.60707 0
-34.3329 -4.60622 0
-32.7685 -4.6047 0
-31.2069 -4.60421 0
-29.6523 -4.60992 0
-28.0929 -4.6057 0
-26.5314 -4.60604 0
-24.9678 -4.61355 0
-23.4086 -4.60518 0
-21.8426 -4.60819 0
-20.2829 -4.60792 0
-18.7267 -4.60795 0
-17.1681 -4.60732 0
-15.6074 -4.60589 0
-14.0444 -4.60849 0
-12.4838 -4.60681 0
-10.9279 -4.60464 0
-9.36377 -4.60758 0
-7.80538 -4.60893 0
-6.24043 -4.60807 0
-4.67876 -4.60949 0
-3.11521 -4.60371 0
-1.5599 -4.61016 0
0 -4.60739 0
-1045.52 79.0607 0
-1045.94 70.2807 0
-1046.35 61.652 0
-1046.73 53.2428 0
-1047.07 45.0929 0
-1047.36 37.2823 0
-1047.6 29.8997 0
-1047.8 23.0039 0
-1047.97 16.6245 0
-1048.08 10.7819 0
-1048.12 5.49375 0
-1048.09 0.777729 0
-1048.02 -3.37716 0
-1048.01 -7.10739 0
-1048.02 -10.5731 0
-1048 -13.8019 0
-1047.89 -16.6959 0
-1047.76 -19.2066 0
-1047.6 -21.3405 0
-1047.42 -23.1059 0
-1047.21 -24.516 0
-1046.97 -25.5937 0
-1046.69 -26.3659 0
-1046.36 -26.8627 0
-1045.98 -27.116 0
-1045.55 -27.1529 0
-1045.05 -27.001 0
-1044.5 -26.6823 0
-1043.89 -26.2182 0
-1043.22 -25.6279 0
-1042.49 -24.9282 0
-1041.7 -24.1352 0
-1040.86 -23.2622 0
-1039.96 -22.3231 0
-1039 -21.3302 0
-1038 -20.2934 0
-1036.94 -19.2239 0
-1035.84 -18.1311 0
-1034.69 -17.0225 0
-1033.5 -15.9059 0
-1032.27 -14.788 0
-1030.99 -13.6761 0
-1029.68 -12.5746 0
-1028.34 -11.4886 0
-1026.96 -10.4236 0
-1025.55 -9.38211 0
-1024.11 -8.36921 0
-1022.65 -7.38636 0
-1021.16 -6.43727 0
-1019.64 -5.52319 0
-1018.11 -4.64737 0
-1016.55 -3.80972 0
-1014.98 -3.01315 0
-1013.39 -2.25621 0
-1011.78 -1.5426 0
-1010.16 -0.871725 0
-1008.53 -0.242961 0
-1006.88 0.342777 0
-1005.23 0.885025 0
-1003.56 1.38455 0
-1001.89 1.84214 0
-1000.21 2.25763 0
-998.528 2.63238 0
-996.839 2.9667 0
-995.145 3.26147 0
-993.448 3.51844 0
-991.748 3.73671 0
-990.048 3.91933 0
-988.347 4.06664 0
-986.645 4.17998 0
-984.944 4.26101 0
-983.244 4.31152 0
-981.547 4.33293 0
-979.852 4.32342 0
-978.158 4.28735 0
-976.467 4.22589 0
-974.781 4.14027 0
-973.099 4.03206 0
-971.42 3.90278 0
-969.746 3.75341 0
-968.076 3.58549 0
-966.412 3.4004 0
-964.754 3.20094 0
-963.1 2.98688 0
-961.452 2.7603 0
-959.81 2.52222 0
-958.172 2.27488 0
-956.542 2.01833 0
-954.915 1.75471 0
-953.294 1.48441 0
-951.681 1.20828 0
-950.072 0.929508 0
-948.469 0.64764 0
-946.871 0.363515 0
-945.278 0.0803943 0
-943.69 -0.202533 0
-942.109 -0.484362 0
-940.531 -0.762507 0
-938.958 -1.03811 0
-937.389 -1.30989 0
-935.824 -1.57725 0
-934.266 -1.83905 0
-932.71 -2.09565 0
-931.158 -2.34548 0
-929.61 -2.58749 0
-928.065 -2.82057 0
-926.523 -3.04724 0
-924.984 -3.26381 0
-923.447 -3.47035 0
-921.913 -3.66868 0
-920.382 -3.85711 0
-918.852 -4.03674 0
-917.325 -4.2056 0
-915.799 -4.36622 0
-914.274 -4.51563 0
-912.751 -4.65453 0
-911.227 -4.78157 0
-909.706 -4.89883 0
-908.185 -5.00609 0
-906.665 -5.10281 0
-905.145 -5.19056 0
-903.625 -5.26728 0
-902.104 -5.33576 0
-900.583 -5.39373 0
-899.064 -5.44163 0
-897.542 -5.47949 0
-896.021 -5.51077 0
-894.499 -5.53222 0
-892.976 -5.54556 0
-891.453 -5.55031 0
-889.93 -5.5475 0
-888.403 -5.53667 0
-886.876 -5.51942 0
-885.348 -5.495 0
-883.819 -5.46509 0
-882.289 -5.42739 0
-880.759 -5.38323 0
-879.226 -5.33557 0
-877.691 -5.28572 0
-876.154 -5.22782 0
-874.618 -5.16443 0
-873.08 -5.09856 0
-871.54 -5.02665 0
-869.999 -4.95369 0
-868.455 -4.87846 0
-866.91 -4.80026 0
-865.365 -4.72005 0
-863.817 -4.63871 0
-862.269 -4.55516 0
-860.718 -4.46642 0
-859.166 -4.3801 0
-857.612 -4.29183 0
-856.056 -4.20196 0
-854.501 -4.11348 0
-852.945 -4.02492 0
-851.386 -3.93862 0
-849.827 -3.85017 0
-848.264 -3.76426 0
-846.702 -3.67846 0
-845.14 -3.59388 0
-843.575 -3.5108 0
-842.01 -3.42759 0
-840.443 -3.34651 0
-838.877 -3.26897 0
-837.308 -3.19382 0
-835.741 -3.11984 0
-834.17 -3.04746 0
-832.599 -2.97702 0
-831.027 -2.91134 0
-829.456 -2.8459 0
-827.883 -2.78534 0
-826.31 -2.72432 0
-824.737 -2.66872 0
-823.163 -2.6151 0
-821.59 -2.56342 0
-820.016 -2.51627 0
-818.442 -2.47186 0
-816.868 -2.43037 0
-815.292 -2.39311 0
-813.716 -2.35587 0
-812.141 -2.32091 0
-810.566 -2.29147 0
-808.991 -2.26281 0
-807.416 -2.23783 0
-805.841 -2.21611 0
-804.266 -2.19652 0
-802.691 -2.18189 0
-801.117 -2.16645 0
-799.542 -2.15499 0
-797.966 -2.146 0
-796.392 -2.14115 0
-794.817 -2.13537 0
-793.243 -2.13312 0
-791.669 -2.13376 0
-790.095 -2.13813 0
-788.522 -2.14252 0
-786.949 -2.14923 0
-785.376 -2.15912 0
-783.804 -2.1694 0
-782.233 -2.18152 0
-780.661 -2.19592 0
-779.09 -2.21141 0
-777.518 -2.22565 0
-775.95 -2.24622 0
-774.379 -2.26574 0
-772.81 -2.28907 0
-771.242 -2.31149 0
-769.674 -2.33699 0
-768.104 -2.3604 0
-766.538 -2.38423 0
-764.97 -2.41074 0
-763.403 -2.43676 0
-761.836 -2.46552 0
-760.269 -2.49149 0
-758.705 -2.52059 0
-757.14 -2.55019 0
-755.574 -2.57706 0
-754.011 -2.60587 0
-752.446 -2.63658 0
-750.882 -2.66647 0
-749.318 -2.69705 0
-747.757 -2.72577 0
-746.195 -2.75384 0
-744.634 -2.77973 0
-743.073 -2.80834 0
-741.512 -2.83538 0
-739.951 -2.86584 0
-738.388 -2.89159 0
-736.829 -2.92033 0
-735.268 -2.94474 0
-733.706 -2.9691 0
-732.148 -2.99067 0
-730.587 -3.01498 0
-729.028 -3.03984 0
-727.468 -3.06109 0
-725.909 -3.08331 0
-724.348 -3.10377 0
-722.789 -3.12516 0
-721.232 -3.14414 0
-719.673 -3.16247 0
-718.115 -3.17989 0
-716.559 -3.19616 0
-715 -3.2147 0
-713.44 -3.23071 0
-711.883 -3.24427 0
-710.324 -3.2556 0
-708.765 -3.26928 0
-707.209 -3.27981 0
-705.653 -3.29035 0
-704.095 -3.30307 0
-702.536 -3.31173 0
-700.977 -3.32019 0
-699.418 -3.32788 0
-697.862 -3.33079 0
-696.305 -3.33378 0
-694.745 -3.33779 0
-693.187 -3.34249 0
-691.628 -3.34543 0
-690.071 -3.35018 0
-688.513 -3.351 0
-686.954 -3.35417 0
-685.397 -3.35315 0
-683.838 -3.35086 0
-682.282 -3.35042 0
-680.72 -3.34798 0
-679.163 -3.34582 0
-677.605 -3.34295 0
-676.046 -3.33903 0
-674.484 -3.33341 0
-672.928 -3.33253 0
-671.37 -3.32668 0
-669.808 -3.32142 0
-668.25 -3.31524 0
-666.69 -3.30887 0
-665.13 -3.30446 0
-663.568 -3.29532 0
-662.01 -3.2875 0
-660.448 -3.2813 0
-658.886 -3.27344 0
-657.326 -3.2667 0
-655.767 -3.25842 0
-654.206 -3.25052 0
-652.647 -3.24179 0
-651.084 -3.23247 0
-649.526 -3.22309 0
-647.964 -3.21199 0
-646.401 -3.20247 0
-644.839 -3.19176 0
-643.278 -3.18575 0
-641.718 -3.17578 0
-640.156 -3.16743 0
-638.592 -3.15911 0
-637.032 -3.14928 0
-635.471 -3.13891 0
-633.909 -3.13092 0
-632.346 -3.12546 0
-630.782 -3.11699 0
-629.219 -3.108 0
-627.658 -3.10086 0
-626.094 -3.09161 0
-624.532 -3.08083 0
-622.97 -3.07549 0
-621.408 -3.06785 0
-619.847 -3.05956 0
-618.284 -3.05273 0
-616.723 -3.04459 0
-615.159 -3.03853 0
-613.595 -3.0309 0
-612.029 -3.02445 0
-610.468 -3.0181 0
-608.903 -3.01114 0
-607.339 -3.00724 0
-605.775 -3.00332 0
-604.213 -2.99752 0
-602.65 -2.99061 0
-601.088 -2.98899 0
-599.523 -2.98447 0
-597.961 -2.97795 0
-596.399 -2.9755 0
-594.832 -2.97176 0
-593.271 -2.96575 0
-591.706 -2.96191 0
-590.145 -2.95976 0
-588.58 -2.96066 0
-587.017 -2.96341 0
-585.453 -2.96111 0
-583.891 -2.96035 0
-582.328 -2.95572 0
-580.765 -2.95121 0
-579.201 -2.94909 0
-577.64 -2.94928 0
-576.076 -2.95023 0
-574.514 -2.95035 0
-572.949 -2.9521 0
-571.388 -2.95258 0
-569.824 -2.95383 0
-568.261 -2.95488 0
-566.698 -2.95563 0
-565.14 -2.95529 0
-563.575 -2.95571 0
-562.012 -2.95784 0
-560.45 -2.96084 0
-558.888 -2.96331 0
-557.324 -2.96303 0
-555.764 -2.96667 0
-554.201 -2.96955 0
-552.636 -2.97355 0
-551.072 -2.97657 0
-549.509 -2.97796 0
-547.948 -2.9827 0
-546.386 -2.98295 0
-544.823 -2.98673 0
-543.262 -2.98835 0
-541.702 -2.99407 0
-540.138 -2.99537 0
-538.575 -2.99606 0
-537.014 -3.00064 0
-535.449 -3.00256 0
-533.887 -3.00958 0
-532.327 -3.01133 0
-530.764 -3.01427 0
-529.203 -3.01889 0
-527.641 -3.02203 0
-526.081 -3.02443 0
-524.516 -3.02616 0
-522.954 -3.03161 0
-521.389 -3.03585 0
-519.83 -3.03912 0
-518.271 -3.04102 0
-516.711 -3.04379 0
-515.149 -3.04301 0
-513.587 -3.04762 0
-512.023 -3.0523 0
-510.462 -3.05621 0
-508.901 -3.05719 0
-507.338 -3.06066 0
-505.778 -3.06586 0
-504.218 -3.06957 0
-502.655 -3.07377 0
-501.095 -3.07298 0
-499.533 -3.07245 0
-497.969 -3.0757 0
-496.407 -3.0768 0
-494.847 -3.07899 0
-493.286 -3.08294 0
-491.724 -3.08676 0
-490.162 -3.08859 0
-488.604 -3.09345 0
-487.039 -3.08989 0
-485.481 -3.09462 0
-483.921 -3.09648 0
-482.36 -3.09107 0
-480.795 -3.09354 0
-479.238 -3.09375 0
-477.674 -3.0964 0
-476.115 -3.09907 0
-474.552 -3.10291 0
-472.99 -3.10806 0
-471.43 -3.10584 0
-469.87 -3.10253 0
-468.306 -3.11053 0
-466.746 -3.10792 0
-465.185 -3.10577 0
-463.625 -3.10677 0
-462.062 -3.10787 0
-460.502 -3.11069 0
-458.941 -3.10829 0
-457.38 -3.10933 0
-455.817 -3.11315 0
-454.256 -3.11614 0
-452.693 -3.11208 0
-451.132 -3.11499 0
-449.57 -3.11497 0
-448.01 -3.11432 0
-446.45 -3.11517 0
-444.888 -3.11267 0
-443.329 -3.11383 0
-441.769 -3.11051 0
-440.206 -3.1067 0
-438.645 -3.10766 0
-437.082 -3.10746 0
-435.523 -3.10721 0
-433.962 -3.10677 0
-432.402 -3.1084 0
-430.838 -3.10786 0
-429.278 -3.10573 0
-427.718 -3.10274 0
-426.156 -3.10195 0
-424.594 -3.10105 0
-423.033 -3.09993 0
-421.472 -3.10183 0
-419.908 -3.10062 0
-418.348 -3.09879 0
-416.784 -3.0957 0
-415.223 -3.09487 0
-413.662 -3.09427 0
-412.102 -3.09205 0
-410.539 -3.09185 0
-408.977 -3.09067 0
-407.414 -3.08645 0
-405.853 -3.08653 0
-404.291 -3.08509 0
-402.729 -3.08445 0
-401.168 -3.08419 0
-399.609 -3.08662 0
-398.048 -3.08496 0
-396.485 -3.08524 0
-394.923 -3.08308 0
-393.361 -3.08108 0
-391.8 -3.08341 0
-390.239 -3.08057 0
-388.678 -3.08088 0
-387.118 -3.07927 0
-385.555 -3.07425 0
-383.996 -3.07597 0
-382.43 -3.07512 0
-380.871 -3.07461 0
-379.311 -3.0752 0
-377.746 -3.07389 0
-376.183 -3.07244 0
-374.622 -3.06679 0
-373.06 -3.06346 0
-371.502 -3.06263 0
-369.939 -3.06457 0
-368.377 -3.06272 0
-366.817 -3.06083 0
-365.252 -3.06236 0
-363.688 -3.06224 0
-362.131 -3.06074 0
-360.57 -3.05784 0
-359.007 -3.06188 0
-357.446 -3.06191 0
-355.883 -3.06516 0
-354.319 -3.06944 0
-352.757 -3.06578 0
-351.197 -3.06457 0
-349.637 -3.06125 0
-348.075 -3.06254 0
-346.515 -3.06162 0
-344.955 -3.05883 0
-343.391 -3.0592 0
-341.832 -3.06196 0
-340.271 -3.05993 0
-338.711 -3.05867 0
-337.152 -3.06083 0
-335.59 -3.06082 0
-334.032 -3.0572 0
-332.468 -3.05946 0
-330.904 -3.06241 0
-329.343 -3.06029 0
-327.78 -3.05735 0
-326.222 -3.06315 0
-324.657 -3.06149 0
-323.096 -3.05931 0
-321.536 -3.06121 0
-319.977 -3.06213 0
-318.414 -3.05812 0
-316.853 -3.05753 0
-315.292 -3.05886 0
-313.731 -3.05618 0
-312.167 -3.05746 0
-310.604 -3.05838 0
-309.043 -3.0616 0
-307.484 -3.05941 0
-305.922 -3.05764 0
-304.358 -3.06443 0
-302.798 -3.06593 0
-301.237 -3.06533 0
-299.677 -3.06359 0
-298.115 -3.06145 0
-296.553 -3.06191 0
-294.995 -3.06511 0
-293.434 -3.06628 0
-291.875 -3.05753 0
-290.312 -3.0562 0
-288.75 -3.05611 0
-287.181 -3.06394 0
-285.618 -3.06029 0
-284.058 -3.0675 0
-282.497 -3.0647 0
-280.937 -3.0642 0
-279.376 -3.06805 0
-277.817 -3.07067 0
-276.256 -3.07122 0
-274.693 -3.06937 0
-273.135 -3.06845 0
-271.576 -3.06669 0
-270.015 -3.0703 0
-268.452 -3.06787 0
-266.894 -3.06546 0
-265.333 -3.06969 0
-263.773 -3.071 0
-262.212 -3.06971 0
-260.653 -3.07169 0
-259.09 -3.06839 0
-257.528 -3.07068 0
-255.967 -3.07173 0
-254.404 -3.07144 0
-252.847 -3.07015 0
-251.283 -3.07028 0
-249.72 -3.06899 0
-248.162 -3.06957 0
-246.598 -3.06951 0
-245.036 -3.06989 0
-243.477 -3.06762 0
-241.913 -3.06772 0
-240.352 -3.0688 0
-238.791 -3.07171 0
-237.233 -3.07061 0
-235.674 -3.07499 0
-234.107 -3.07262 0
-232.546 -3.07098 0
-230.987 -3.0718 0
-229.425 -3.07068 0
-227.866 -3.07023 0
-226.305 -3.07224 0
-224.741 -3.07004 0
-223.182 -3.06992 0
-221.62 -3.0706 0
-220.056 -3.06848 0
-218.498 -3.0708 0
-216.937 -3.07121 0
-215.377 -3.07104 0
-213.817 -3.07231 0
-212.259 -3.07427 0
-210.696 -3.07475 0
-209.134 -3.07188 0
-207.573 -3.07007 0
-206.009 -3.06823 0
-204.45 -3.06897 0
-202.886 -3.07151 0
-201.326 -3.06823 0
-199.763 -3.07012 0
-198.205 -3.0678 0
-196.647 -3.06941 0
-195.084 -3.07187 0
-193.522 -3.07048 0
-191.962 -3.06896 0
-190.401 -3.0694 0
-188.836 -3.06978 0
-187.273 -3.07069 0
-185.716 -3.07097 0
-184.156 -3.07142 0
-182.595 -3.0737 0
-181.035 -3.07471 0
-179.472 -3.07504 0
-177.913 -3.07436 0
-176.353 -3.07261 0
-174.794 -3.06997 0
-173.233 -3.0689 0
-171.67 -3.07059 0
-170.112 -3.07407 0
-168.553 -3.07273 0
-166.992 -3.07073 0
-165.431 -3.07403 0
-163.867 -3.07328 0
-162.306 -3.07412 0
-160.747 -3.07092 0
-159.185 -3.07384 0
-157.622 -3.07355 0
-156.065 -3.07259 0
-154.505 -3.06912 0
-152.943 -3.07079 0
-151.382 -3.06694 0
-149.821 -3.07085 0
-148.259 -3.07294 0
-146.701 -3.07355 0
-145.137 -3.07307 0
-143.573 -3.07214 0
-142.014 -3.071 0
-140.455 -3.0682 0
-138.895 -3.06913 0
-137.333 -3.06914 0
-135.773 -3.06987 0
-134.209 -3.06864 0
-132.649 -3.06972 0
-131.09 -3.06765 0
-129.526 -3.06886 0
-127.967 -3.06827 0
-126.408 -3.07174 0
-124.849 -3.06899 0
-123.288 -3.06902 0
-121.728 -3.07058 0
-120.165 -3.06886 0
-118.607 -3.06975 0
-117.042 -3.0663 0
-115.48 -3.06559 0
-113.918 -3.06985 0
-112.36 -3.06821 0
-110.798 -3.07142 0
-109.237 -3.06947 0
-107.675 -3.06693 0
-106.117 -3.06883 0
-104.559 -3.06607 0
-102.997 -3.06821 0
-101.434 -3.06726 0
-99.8743 -3.06724 0
-98.3165 -3.06646 0
-96.7515 -3.06762 0
-95.1925 -3.06441 0
-93.631 -3.06195 0
-92.07 -3.06569 0
-90.511 -3.06747 0
-88.9503 -3.06812 0
-87.3903 -3.06869 0
-85.828 -3.06983 0
-84.2709 -3.06709 0
-82.7094 -3.06887 0
-81.1521 -3.06954 0
-79.589 -3.06998 0
-78.0295 -3.07182 0
-76.4668 -3.07145 0
-74.9091 -3.06643 0
-73.3489 -3.06251 0
-71.7853 -3.0686 0
-70.2219 -3.06899 0
-68.6626 -3.06811 0
-67.1029 -3.0634 0
-65.5404 -3.06429 0
-63.9799 -3.06595 0
-62.4195 -3.06296 0
-60.8573 -3.06368 0
-59.2995 -3.06575 0
-57.7402 -3.06198 0
-56.1806 -3.06685 0
-54.6189 -3.06465 0
-53.0561 -3.06689 0
-51.4992 -3.06552 0
-49.9407 -3.07019 0
-48.3831 -3.0704 0
-46.8184 -3.07055 0
-45.2532 -3.06933 0
-43.6901 -3.072 0
-42.1288 -3.07135 0
-40.5698 -3.06772 0
-39.0095 -3.07224 0
-37.45 -3.07288 0
-35.8913 -3.0713 0
-34.3334 -3.07025 0
-32.7725 -3.06899 0
-31.2128 -3.06919 0
-29.6499 -3.07212 0
-28.0888 -3.06869 0
-26.5288 -3.07203 0
-24.9717 -3.07127 0
-23.4069 -3.06964 0
-21.8481 -3.07243 0
-20.2887 -3.07306 0
-18.7264 -3.07153 0
-17.1638 -3.07106 0
-15.6044 -3.07206 0
-14.0435 -3.07269 0
-12.4824 -3.07024 0
-10.9233 -3.06916 0
-9.36382 -3.06775 0
-7.80505 -3.07001 0
-6.24234 -3.07182 0
-4.67931 -3.07338 0
-3.11951 -3.0685 0
-1.56168 -3.07341 0
0 -3.07361 0
-1054.49 79.9905 0
-1054.51 70.9564 0
-1054.68 62.3103 0
-1054.81 53.9073 0
-1054.85 45.7779 0
-1054.78 37.9794 0
-1054.63 30.5892 0
-1054.39 23.6724 0
-1054.08 17.275 0
-1053.7 11.4227 0
-1053.26 6.13143 0
-1052.77 1.39588 0
-1052.3 -2.84188 0
-1051.9 -6.68998 0
-1051.53 -10.2012 0
-1051.17 -13.3915 0
-1050.75 -16.2565 0
-1050.27 -18.7664 0
-1049.76 -20.903 0
-1049.22 -22.6679 0
-1048.67 -24.0748 0
-1048.11 -25.1428 0
-1047.53 -25.8987 0
-1046.93 -26.3722 0
-1046.31 -26.5938 0
-1045.66 -26.5935 0
-1044.98 -26.3984 0
-1044.26 -26.0333 0
-1043.51 -25.5211 0
-1042.71 -24.881 0
-1041.87 -24.1314 0
-1040.99 -23.2875 0
-1040.07 -22.3649 0
-1039.1 -21.3769 0
-1038.1 -20.3368 0
-1037.05 -19.2535 0
-1035.96 -18.1401 0
-1034.83 -17.0037 0
-1033.67 -15.854 0
-1032.47 -14.6989 0
-1031.23 -13.5436 0
-1029.97 -12.3962 0
-1028.66 -11.2608 0
-1027.33 -10.1438 0
-1025.97 -9.0492 0
-1024.59 -7.98028 0
-1023.18 -6.94089 0
-1021.74 -5.93446 0
-1020.28 -4.96254 0
-1018.8 -4.02765 0
-1017.3 -3.13234 0
-1015.78 -2.27736 0
-1014.25 -1.46322 0
-1012.69 -0.691508 0
-1011.13 0.0352207 0
-1009.55 0.71817 0
-1007.95 1.3581 0
-1006.35 1.95347 0
-1004.73 2.50459 0
-1003.11 3.0127 0
-1001.48 3.47698 0
-999.838 3.89821 0
-998.192 4.27766 0
-996.539 4.61664 0
-994.882 4.91455 0
-993.221 5.17424 0
-991.557 5.39452 0
-989.89 5.57829 0
-988.221 5.72594 0
-986.551 5.8396 0
-984.88 5.92028 0
-983.209 5.96929 0
-981.539 5.98809 0
-979.87 5.97768 0
-978.203 5.93984 0
-976.536 5.87533 0
-974.872 5.78603 0
-973.21 5.67454 0
-971.551 5.54155 0
-969.896 5.38823 0
-968.244 5.21643 0
-966.594 5.02716 0
-964.95 4.8226 0
-963.309 4.60337 0
-961.672 4.37235 0
-960.04 4.13018 0
-958.413 3.87677 0
-956.789 3.61627 0
-955.169 3.34732 0
-953.554 3.07157 0
-951.944 2.79 0
-950.338 2.50714 0
-948.737 2.22022 0
-947.141 1.93282 0
-945.548 1.64366 0
-943.96 1.35677 0
-942.375 1.07128 0
-940.796 0.78765 0
-939.22 0.508224 0
-937.647 0.233032 0
-936.079 -0.0392713 0
-934.514 -0.304503 0
-932.953 -0.564441 0
-931.394 -0.816495 0