<?xml version="1.0"?>
<VTKFile type="StructuredGrid"  version="0.1" byte_order="LittleEndian" compressor="vtkZLibDataCompressor">
  <StructuredGrid WholeExtent="0 700 0 30 0 0">
    <Piece Extent="0 700 0 30 0 0">
      <PointData Vectors="Velocity">
        <DataArray type="Float32" Name="Velocity" NumberOfComponents="3" format="ascii">
-1079 110.757 0
-1079.37 100.215 0
-1079.8 89.8038 0
-1080.25 79.6107 0
-1080.72 69.6697 0
-1081.22 60.04 0
-1081.78 50.8131 0
-1082.38 42.0366 0
-1082.99 33.7628 0
-1083.59 26.0069 0
-1084.17 18.7857 0
-1084.71 12.1221 0
-1085.23 6.0581 0
-1085.66 0.56737 0
-1085.92 -4.43047 0
-1086.12 -9.1806 0
-1086.36 -13.6252 0
-1086.66 -17.6847 0
-1086.92 -21.3699 0
-1087.14 -24.6726 0
-1087.33 -27.5932 0
-1087.51 -30.1242 0
-1087.65 -32.2858 0
-1087.74 -34.0884 0
-1087.78 -35.5724 0
-1087.75 -36.7515 0
-1087.66 -37.6432 0
-1087.5 -38.2808 0
-1087.27 -38.6807 0
-1086.96 -38.8723 0
-1086.59 -38.8694 0
-1086.14 -38.6835 0
-1085.62 -38.3387 0
-1085.02 -37.8502 0
-1084.37 -37.2276 0
-1083.65 -36.4846 0
-1082.86 -35.6359 0
-1082 -34.7011 0
-1081.09 -33.6791 0
-1080.12 -32.5819 0
-1079.09 -31.4296 0
-1078 -30.225 0
-1076.87 -28.9759 0
-1075.69 -27.6923 0
-1074.45 -26.387 0
-1073.17 -25.0548 0
-1071.84 -23.7057 0
-1070.47 -22.3533 0
-1069.06 -21.0029 0
-1067.62 -19.6553 0
-1066.14 -18.3158 0
-1064.62 -16.9861 0
-1063.08 -15.6735 0
-1061.5 -14.3836 0
-1059.9 -13.1132 0
-1058.27 -11.8705 0
-1056.62 -10.6549 0
-1054.94 -9.47371 0
-1053.25 -8.32619 0
-1051.53 -7.20853 0
-1049.79 -6.13148 0
-1048.04 -5.09416 0
-1046.28 -4.09504 0
-1044.5 -3.13711 0
-1042.71 -2.21996 0
-1040.9 -1.3443 0
-1039.08 -0.511496 0
-1037.26 0.271765 0
-1035.42 1.01097 0
-1033.58 1.71421 0
-1031.74 2.36789 0
-1029.89 2.97853 0
-1028.03 3.54472 0
-1026.17 4.06968 0
-1024.31 4.5499 0
-1022.45 4.9878 0
-1020.59 5.3858 0
-1018.72 5.73957 0
-1016.86 6.0563 0
-1015 6.33213 0
-1013.14 6.56842 0
-1011.28 6.76817 0
-1009.42 6.93047 0
-1007.57 7.05921 0
-1005.72 7.15115 0
-1003.88 7.2121 0
-1002.04 7.23686 0
-1000.21 7.23317 0
-998.379 7.19415 0
-996.553 7.13614 0
-994.734 7.04243 0
-992.923 6.92136 0
-991.12 6.78122 0
-989.323 6.61213 0
-987.531 6.41927 0
-985.747 6.20804 0
-983.973 5.97573 0
-982.203 5.72823 0
-980.441 5.45723 0
-978.685 5.17602 0
-976.938 4.87645 0
-975.199 4.56216 0
-973.468 4.23514 0
-971.744 3.89956 0
-970.025 3.55198 0
-968.314 3.19374 0
-966.612 2.83172 0
-964.915 2.46154 0
-963.227 2.08583 0
-961.548 1.70505 0
-959.874 1.32095 0
-958.206 0.932549 0
-956.544 0.546128 0
-954.891 0.157822 0
-953.243 -0.229793 0
-951.601 -0.616309 0
-949.965 -1.00148 0
-948.333 -1.38004 0
-946.709 -1.75565 0
-945.087 -2.12665 0
-943.47 -2.49489 0
-941.859 -2.85426 0
-940.254 -3.20749 0
-938.65 -3.55443 0
-937.054 -3.8973 0
-935.458 -4.22549 0
-933.867 -4.54867 0
-932.281 -4.8599 0
-930.697 -5.1633 0
-929.114 -5.45375 0
-927.534 -5.73875 0
-925.959 -6.01214 0
-924.385 -6.27464 0
-922.813 -6.52128 0
-921.241 -6.76137 0
-919.673 -6.98894 0
-918.107 -7.20556 0
-916.54 -7.40881 0
-914.975 -7.60185 0
-913.407 -7.78475 0
-911.841 -7.95382 0
-910.278 -8.11363 0
-908.714 -8.25756 0
-907.15 -8.3914 0
-905.586 -8.51633 0
-904.021 -8.62821 0
-902.457 -8.72961 0
-900.893 -8.81682 0
-899.328 -8.89625 0
-897.762 -8.96591 0
-896.193 -9.02432 0
-894.626 -9.07248 0
-893.057 -9.10981 0
-891.487 -9.13769 0
-889.916 -9.15619 0
-888.341 -9.16372 0
-886.767 -9.16197 0
-885.192 -9.15269 0
-883.611 -9.13591 0
-882.031 -9.1105 0
-880.452 -9.07836 0
-878.871 -9.03889 0
-877.285 -8.99099 0
-875.698 -8.93593 0
-874.108 -8.8751 0
-872.518 -8.80707 0
-870.928 -8.73424 0
-869.334 -8.65412 0
-867.738 -8.57136 0
-866.139 -8.48344 0
-864.542 -8.38861 0
-862.94 -8.29236 0
-861.336 -8.19155 0
-859.731 -8.08684 0
-858.124 -7.97719 0
-856.513 -7.86946 0
-854.905 -7.75581 0
-853.289 -7.64269 0
-851.678 -7.52405 0
-850.059 -7.40587 0
-848.44 -7.28515 0
-846.821 -7.1639 0
-845.201 -7.04437 0
-843.578 -6.92017 0
-841.954 -6.79793 0
-840.325 -6.67433 0
-838.697 -6.55029 0
-837.068 -6.42956 0
-835.437 -6.30781 0
-833.805 -6.18594 0
-832.172 -6.06646 0
-830.536 -5.94571 0
-828.902 -5.82737 0
-827.263 -5.71169 0
-825.627 -5.59815 0
-823.987 -5.48736 0
-822.345 -5.37344 0
-820.706 -5.26528 0
-819.064 -5.15978 0
-817.419 -5.05514 0
-815.775 -4.95475 0
-814.131 -4.85408 0
-812.486 -4.75882 0
-810.836 -4.66774 0
-809.19 -4.57833 0
-807.544 -4.48865 0
-805.894 -4.40726 0
-804.245 -4.32778 0
-802.596 -4.24991 0
-800.945 -4.17554 0
-799.295 -4.10241 0
-797.645 -4.03325 0
-795.994 -3.9689 0
-794.342 -3.91223 0
-792.689 -3.85379 0
-791.04 -3.79789 0
-789.388 -3.74785 0
-787.737 -3.70237 0
-786.086 -3.65898 0
-784.434 -3.62044 0
-782.783 -3.58259 0
-781.134 -3.54925 0
-779.482 -3.52145 0
-777.83 -3.4885 0
-776.178 -3.46236 0
-774.527 -3.44234 0
-772.877 -3.42479 0
-771.226 -3.40679 0
-769.576 -3.39403 0
-767.927 -3.38459 0
-766.279 -3.37662 0
-764.629 -3.37177 0
-762.98 -3.37087 0
-761.334 -3.3701 0
-759.687 -3.37705 0
-758.041 -3.37999 0
-756.394 -3.38327 0
-754.746 -3.39526 0
-753.099 -3.41148 0
-751.455 -3.42583 0
-749.812 -3.44283 0
-748.168 -3.46141 0
-746.524 -3.48221 0
-744.882 -3.50375 0
-743.238 -3.5263 0
-741.596 -3.55673 0
-739.956 -3.58432 0
-738.315 -3.61202 0
-736.675 -3.64077 0
-735.034 -3.6738 0
-733.394 -3.70355 0
-731.756 -3.73465 0
-730.119 -3.76798 0
-728.478 -3.79965 0
-726.839 -3.83709 0
-725.202 -3.87432 0
-723.565 -3.90929 0
-721.932 -3.94895 0
-720.297 -3.98427 0
-718.664 -4.02312 0
-717.03 -4.06297 0
-715.397 -4.10153 0
-713.762 -4.13789 0
-712.132 -4.18014 0
-710.499 -4.21713 0
-708.866 -4.25504 0
-707.234 -4.29276 0
-705.605 -4.33162 0
-703.974 -4.37309 0
-702.345 -4.41098 0
-700.715 -4.45164 0
-699.086 -4.48888 0
-697.453 -4.53007 0
-695.827 -4.56533 0
-694.197 -4.60228 0
-692.57 -4.63813 0
-690.94 -4.6736 0
-689.313 -4.71252 0
-687.684 -4.74469 0
-686.061 -4.77696 0
-684.431 -4.81127 0
-682.803 -4.84206 0
-681.176 -4.86917 0
-679.55 -4.90074 0
-677.923 -4.93104 0
-676.298 -4.96241 0
-674.671 -4.99181 0
-673.046 -5.01621 0
-671.423 -5.04353 0
-669.8 -5.06817 0
-668.176 -5.09082 0
-666.55 -5.11148 0
-664.924 -5.13243 0
-663.304 -5.15038 0
-661.68 -5.17115 0
-660.054 -5.19454 0
-658.428 -5.20621 0
-656.807 -5.22446 0
-655.181 -5.24234 0
-653.557 -5.25782 0
-651.931 -5.26927 0
-650.307 -5.28715 0
-648.686 -5.29355 0
-647.062 -5.30752 0
-645.438 -5.31571 0
-643.811 -5.32547 0
-642.184 -5.33255 0
-640.562 -5.34056 0
-638.94 -5.34683 0
-637.315 -5.34911 0
-635.689 -5.35302 0
-634.064 -5.35789 0
-632.438 -5.35797 0
-630.812 -5.36149 0
-629.185 -5.36766 0
-627.561 -5.36374 0
-625.934 -5.36299 0
-624.307 -5.36043 0
-622.678 -5.36356 0
-621.053 -5.36098 0
-619.427 -5.3561 0
-617.805 -5.35289 0
-616.179 -5.34666 0
-614.551 -5.3411 0
-612.925 -5.33507 0
-611.299 -5.32354 0
-609.672 -5.31957 0
-608.044 -5.31219 0
-606.418 -5.30294 0
-604.79 -5.29631 0
-603.161 -5.28609 0
-601.534 -5.27685 0
-599.905 -5.26359 0
-598.277 -5.25749 0
-596.652 -5.24728 0
-595.022 -5.23416 0
-593.394 -5.22305 0
-591.764 -5.21184 0
-590.135 -5.19372 0
-588.506 -5.18196 0
-586.878 -5.17151 0
-585.247 -5.1612 0
-583.616 -5.14683 0
-581.986 -5.13185 0
-580.354 -5.12174 0
-578.724 -5.10928 0
-577.094 -5.09681 0
-575.464 -5.08493 0
-573.835 -5.07652 0
-572.204 -5.06182 0
-570.575 -5.04311 0
-568.945 -5.0305 0
-567.316 -5.01759 0
-565.681 -5.00134 0
-564.048 -4.9878 0
-562.415 -4.97575 0
-560.786 -4.96765 0
-559.154 -4.95661 0
-557.518 -4.9422 0
-555.89 -4.93073 0
-554.26 -4.92106 0
-552.629 -4.90361 0
-550.994 -4.89165 0
-549.36 -4.88197 0
-547.727 -4.87327 0
-546.095 -4.86039 0
-544.464 -4.85027 0
-542.834 -4.83619 0
-541.204 -4.8187 0
-539.571 -4.81308 0
-537.939 -4.80543 0
-536.308 -4.79463 0
-534.678 -4.79031 0
-533.046 -4.77704 0
-531.409 -4.77204 0
-529.777 -4.76166 0
-528.144 -4.75829 0
-526.514 -4.74729 0
-524.881 -4.74113 0
-523.253 -4.72771 0
-521.618 -4.72205 0
-519.985 -4.71887 0
-518.351 -4.71451 0
-516.715 -4.70716 0
-515.08 -4.70187 0
-513.451 -4.69801 0
-511.822 -4.69078 0
-510.185 -4.68473 0
-508.553 -4.68442 0
-506.923 -4.67434 0
-505.291 -4.6728 0
-503.657 -4.66775 0
-502.025 -4.66438 0
-500.39 -4.66193 0
-498.76 -4.66231 0
-497.13 -4.6597 0
-495.496 -4.65835 0
-493.865 -4.65436 0
-492.234 -4.65346 0
-490.602 -4.65034 0
-488.965 -4.64459 0
-487.337 -4.64797 0
-485.701 -4.64973 0
-484.07 -4.64754 0
-482.438 -4.64995 0
-480.807 -4.64875 0
-479.171 -4.6459 0
-477.539 -4.65066 0
-475.907 -4.65086 0
-474.273 -4.65388 0
-472.646 -4.65399 0
-471.015 -4.66063 0
-469.385 -4.66094 0
-467.752 -4.66391 0
-466.118 -4.66081 0
-464.487 -4.67139 0
-462.856 -4.67287 0
-461.226 -4.67772 0
-459.591 -4.67687 0
-457.962 -4.68104 0
-456.335 -4.6853 0
-454.701 -4.68628 0
-453.07 -4.68949 0
-451.438 -4.69173 0
-449.805 -4.69803 0
-448.172 -4.70214 0
-446.54 -4.70721 0
-444.906 -4.71702 0
-443.277 -4.71589 0
-441.646 -4.71993 0
-440.021 -4.72557 0
-438.386 -4.73715 0
-436.756 -4.73624 0
-435.123 -4.74319 0
-433.496 -4.74425 0
-431.871 -4.74975 0
-430.241 -4.7469 0
-428.604 -4.74946 0
-426.974 -4.75753 0
-425.34 -4.7631 0
-423.713 -4.77444 0
-422.082 -4.77634 0
-420.454 -4.78264 0
-418.823 -4.78523 0
-417.192 -4.78726 0
-415.563 -4.79293 0
-413.931 -4.79637 0
-412.296 -4.80065 0
-410.667 -4.80375 0
-409.035 -4.80803 0
-407.408 -4.81409 0
-405.78 -4.81656 0
-404.151 -4.82539 0
-402.518 -4.8204 0
-400.887 -4.82846 0
-399.256 -4.83015 0
-397.625 -4.83529 0
-395.993 -4.83556 0
-394.369 -4.83786 0
-392.738 -4.84734 0
-391.11 -4.84455 0
-389.481 -4.84913 0
-387.851 -4.85545 0
-386.216 -4.8581 0
-384.589 -4.86379 0
-382.957 -4.86188 0
-381.328 -4.86521 0
-379.697 -4.86983 0
-378.073 -4.87461 0
-376.444 -4.87367 0
-374.816 -4.87465 0
-373.178 -4.8828 0
-371.554 -4.88466 0
-369.923 -4.8856 0
-368.299 -4.88914 0
-366.671 -4.88235 0
-365.033 -4.8845 0
-363.401 -4.89122 0
-361.775 -4.88211 0
-360.142 -4.88911 0
-358.514 -4.88775 0
-356.883 -4.89269 0
-355.255 -4.89702 0
-353.628 -4.9026 0
-352.002 -4.90174 0
-350.372 -4.89871 0
-348.746 -4.89597 0
-347.116 -4.89913 0
-345.487 -4.89793 0
-343.859 -4.90323 0
-342.227 -4.8969 0
-340.595 -4.9006 0
-338.964 -4.89871 0
-337.332 -4.90316 0
-335.702 -4.90159 0
-334.069 -4.89879 0
-332.443 -4.90736 0
-330.808 -4.91052 0
-329.182 -4.90619 0
-327.549 -4.90633 0
-325.92 -4.90685 0
-324.292 -4.90691 0
-322.666 -4.90825 0
-321.036 -4.90829 0
-319.41 -4.9007 0
-317.78 -4.90011 0
-316.145 -4.90355 0
-314.517 -4.89823 0
-312.888 -4.90169 0
-311.259 -4.89769 0
-309.628 -4.90139 0
-307.999 -4.89848 0
-306.371 -4.902 0
-304.742 -4.90006 0
-303.11 -4.89875 0
-301.474 -4.89622 0
-299.847 -4.89652 0
-298.217 -4.90011 0
-296.591 -4.89137 0
-294.961 -4.89118 0
-293.331 -4.89283 0
-291.704 -4.88999 0
-290.072 -4.89277 0
-288.443 -4.88467 0
-286.817 -4.89023 0
-285.187 -4.88686 0
-283.56 -4.88236 0
-281.927 -4.88795 0
-280.296 -4.88419 0
-278.666 -4.88194 0
-277.032 -4.8781 0
-275.401 -4.87711 0
-273.769 -4.8728 0
-272.143 -4.87375 0
-270.512 -4.8721 0
-268.88 -4.8695 0
-267.246 -4.87285 0
-265.616 -4.86515 0
-263.991 -4.86643 0
-262.362 -4.8615 0
-260.732 -4.86377 0
-259.103 -4.86495 0
-257.475 -4.86619 0
-255.845 -4.86107 0
-254.213 -4.85892 0
-252.584 -4.85823 0
-250.954 -4.85484 0
-249.319 -4.85967 0
-247.687 -4.85161 0
-246.061 -4.85454 0
-244.43 -4.85381 0
-242.801 -4.85517 0
-241.169 -4.85172 0
-239.545 -4.84977 0
-237.917 -4.85201 0
-236.287 -4.85434 0
-234.656 -4.85228 0
-233.026 -4.85216 0
-231.395 -4.84807 0
-229.766 -4.84789 0
-228.133 -4.84553 0
-226.505 -4.84808 0
-224.87 -4.84136 0
-223.239 -4.83802 0
-221.614 -4.8395 0
-219.98 -4.84312 0
-218.351 -4.84298 0
-216.721 -4.84022 0
-215.094 -4.83164 0
-213.465 -4.83663 0
-211.839 -4.83041 0
-210.204 -4.83257 0
-208.572 -4.82908 0
-206.946 -4.83437 0
-205.316 -4.82495 0
-203.686 -4.82331 0
-202.055 -4.82352 0
-200.426 -4.82607 0
-198.794 -4.82385 0
-197.165 -4.82649 0
-195.538 -4.82618 0
-193.9 -4.82765 0
-192.272 -4.82446 0
-190.639 -4.82773 0
-189.013 -4.82736 0
-187.385 -4.82734 0
-185.75 -4.82898 0
-184.124 -4.82704 0
-182.5 -4.83153 0
-180.873 -4.8295 0
-179.237 -4.82606 0
-177.608 -4.83101 0
-175.976 -4.82515 0
-174.348 -4.82964 0
-172.717 -4.81994 0
-171.09 -4.82854 0
-169.46 -4.82515 0
-167.826 -4.82607 0
-166.198 -4.82198 0
-164.567 -4.82277 0
-162.938 -4.828 0
-161.306 -4.82449 0
-159.678 -4.82671 0
-158.053 -4.83112 0
-156.422 -4.82782 0
-154.791 -4.82468 0
-153.162 -4.82142 0
-151.531 -4.82707 0
-149.905 -4.82905 0
-148.274 -4.82814 0
-146.649 -4.82889 0
-145.009 -4.82928 0
-143.387 -4.82588 0
-141.754 -4.82495 0
-140.121 -4.82547 0
-138.494 -4.83255 0
-136.861 -4.83003 0
-135.233 -4.82915 0
-133.6 -4.83088 0
-131.973 -4.8331 0
-130.347 -4.83483 0
-128.718 -4.8299 0
-127.085 -4.83357 0
-125.458 -4.82598 0
-123.833 -4.83229 0
-122.206 -4.83332 0
-120.569 -4.83607 0
-118.94 -4.83463 0
-117.31 -4.83439 0
-115.686 -4.83064 0
-114.053 -4.83473 0
-112.421 -4.83647 0
-110.792 -4.83894 0
-109.16 -4.84045 0
-107.532 -4.83961 0
-105.903 -4.83713 0
-104.279 -4.83995 0
-102.65 -4.84028 0
-101.018 -4.84202 0
-99.3839 -4.83663 0
-97.7563 -4.83846 0
-96.1307 -4.84161 0
-94.5046 -4.83714 0
-92.8711 -4.84249 0
-91.2452 -4.84743 0
-89.6157 -4.8444 0
-87.9839 -4.84395 0
-86.357 -4.83889 0
-84.7281 -4.84397 0
-83.0974 -4.84426 0
-81.4652 -4.84334 0
-79.8321 -4.8411 0
-78.2071 -4.84046 0
-76.5718 -4.8441 0
-74.9385 -4.84423 0
-73.3063 -4.84089 0
-71.6764 -4.84532 0
-70.0511 -4.85127 0
-68.4201 -4.84624 0
-66.7905 -4.84672 0
-65.1637 -4.84817 0
-63.5379 -4.84769 0
-61.9062 -4.84846 0
-60.279 -4.84898 0
-58.6504 -4.84321 0
-57.0177 -4.84773 0
-55.3909 -4.84838 0
-53.7632 -4.84926 0
-52.1304 -4.8508 0
-50.5034 -4.85283 0
-48.8755 -4.85169 0
-47.2458 -4.85432 0
-45.6159 -4.85136 0
-43.9851 -4.85029 0
-42.3566 -4.84557 0
-40.7305 -4.84715 0
-39.1025 -4.85126 0
-37.4716 -4.85191 0
-35.8429 -4.85063 0
-34.2156 -4.84806 0
-32.5868 -4.84995 0
-30.9577 -4.84792 0
-29.3296 -4.84868 0
-27.6975 -4.85072 0
-26.068 -4.84962 0
-24.4418 -4.84844 0
-22.8121 -4.844 0
-21.1856 -4.85233 0
-19.5566 -4.84931 0
-17.9262 -4.84761 0
-16.295 -4.85206 0
-14.6685 -4.84909 0
-13.039 -4.84533 0
-11.4047 -4.84757 0
-9.77353 -4.84485 0
-8.14534 -4.84903 0
-6.51767 -4.85029 0
-4.88649 -4.84285 0
-3.25885 -4.84463 0
-1.63189 -4.84659 0
0 -4.84369 0
-1089.54 111.156 0
-1089.8 100.569 0
-1090.07 90.1286 0
-1090.31 79.9137 0
-1090.53 69.9511 0
-1090.7 60.2821 0
-1090.84 51.0025 0
-1090.95 42.1781 0
-1091.04 33.8656 0
-1091.09 26.0874 0
-1091.1 18.855 0
-1091.06 12.1969 0
-1090.96 6.13013 0
-1090.84 0.660405 0
-1090.81 -4.35693 0
-1090.76 -9.08457 0
-1090.72 -13.5456 0
-1090.57 -17.616 0
-1090.44 -21.3028 0
-1090.28 -24.5975 0
-1090.11 -27.5203 0
-1089.92 -30.0359 0
-1089.69 -32.1746 0
-1089.44 -33.9504 0
-1089.15 -35.3973 0
-1088.83 -36.5321 0
-1088.46 -37.3734 0
-1088.05 -37.9587 0
-1087.59 -38.3041 0
-1087.08 -38.4309 0
-1086.51 -38.3718 0
-1085.89 -38.1226 0
-1085.21 -37.7166 0
-1084.48 -37.168 0
-1083.7 -36.4836 0
-1082.87 -35.6826 0
-1081.98 -34.7785 0
-1081.04 -33.7824 0
-1080.05 -32.7076 0
-1079.01 -31.5618 0
-1077.93 -30.3543 0
-1076.79 -29.0997 0
-1075.62 -27.807 0
-1074.4 -26.4738 0
-1073.15 -25.1187 0
-1071.84 -23.747 0
-1070.51 -22.3588 0
-1069.14 -20.9701 0
-1067.73 -19.5832 0
-1066.29 -18.2003 0
-1064.82 -16.8278 0
-1063.32 -15.4667 0
-1061.79 -14.1247 0
-1060.24 -12.8105 0
-1058.66 -11.5131 0
-1057.06 -10.2467 0
-1055.44 -9.01038 0
-1053.79 -7.80988 0
-1052.13 -6.64006 0
-1050.45 -5.50807 0
-1048.75 -4.41324 0
-1047.04 -3.36142 0
-1045.32 -2.34756 0
-1043.58 -1.37764 0
-1041.82 -0.448852 0
-1040.06 0.434235 0
-1038.29 1.27593 0
-1036.51 2.06975 0
-1034.72 2.81853 0
-1032.92 3.5229 0
-1031.12 4.18344 0
-1029.31 4.79762 0
-1027.5 5.37012 0
-1025.68 5.89644 0
-1023.86 6.37827 0
-1022.04 6.81767 0
-1020.22 7.21474 0
-1018.4 7.57216 0
-1016.57 7.88473 0
-1014.75 8.1604 0
-1012.93 8.39538 0
-1011.1 8.59331 0
-1009.28 8.75191 0
-1007.47 8.87683 0
-1005.65 8.96718 0
-1003.84 9.02265 0
-1002.03 9.04441 0
-1000.23 9.03403 0
-998.429 8.99233 0
-996.633 8.92772 0
-994.843 8.82892 0
-993.056 8.70334 0
-991.276 8.55461 0
-989.503 8.37897 0
-987.732 8.18094 0
-985.968 7.96293 0
-984.211 7.72475 0
-982.463 7.47003 0
-980.716 7.19421 0
-978.976 6.90506 0
-977.245 6.59825 0
-975.517 6.27754 0
-973.797 5.94246 0
-972.083 5.60085 0
-970.374 5.24644 0
-968.672 4.88341 0
-966.976 4.51312 0
-965.286 4.13628 0
-963.604 3.75288 0
-961.926 3.36645 0
-960.255 2.97571 0
-958.589 2.58314 0
-956.928 2.18987 0
-955.275 1.79466 0
-953.626 1.40276 0
-951.981 1.01061 0
-950.344 0.621395 0
-948.709 0.237807 0
-947.078 -0.142673 0
-945.454 -0.518804 0
-943.833 -0.890443 0
-942.214 -1.25556 0
-940.601 -1.61299 0
-938.991 -1.96365 0
-937.384 -2.30648 0
-935.781 -2.63939 0
-934.18 -2.96706 0
-932.583 -3.28285 0
-930.991 -3.5881 0
-929.399 -3.88272 0
-927.811 -4.16824 0
-926.223 -4.44339 0
-924.637 -4.7068 0
-923.053 -4.95687 0
-921.472 -5.19888 0
-919.891 -5.42766 0
-918.313 -5.64363 0
-916.735 -5.85018 0
-915.158 -6.04393 0
-913.581 -6.22571 0
-912.004 -6.39512 0
-910.427 -6.55463 0
-908.853 -6.7005 0
-907.278 -6.8342 0
-905.702 -6.95799 0
-904.127 -7.06987 0
-902.552 -7.17104 0
-900.977 -7.26089 0
-899.401 -7.33668 0
-897.823 -7.40534 0
-896.247 -7.46385 0
-894.667 -7.51119 0
-893.088 -7.5471 0
-891.509 -7.57344 0
-889.927 -7.59138 0
-888.345 -7.59716 0
-886.763 -7.59396 0
-885.177 -7.58375 0
-883.591 -7.56515 0
-882.003 -7.53911 0
-880.416 -7.50531 0
-878.825 -7.46303 0
-877.235 -7.41193 0
-875.641 -7.35727 0
-874.046 -7.29472 0
-872.451 -7.22621 0
-870.852 -7.15187 0
-869.254 -7.07099 0
-867.652 -6.98532 0
-866.049 -6.89517 0
-864.447 -6.79817 0
-862.841 -6.70016 0
-861.235 -6.59768 0
-859.625 -6.49126 0
-858.016 -6.38119 0
-856.404 -6.26991 0
-854.79 -6.15653 0
-853.176 -6.03936 0
-851.558 -5.92118 0
-849.941 -5.80083 0
-848.322 -5.67921 0
-846.702 -5.55833 0
-845.079 -5.4338 0
-843.455 -5.30895 0
-841.83 -5.18445 0
-840.204 -5.05854 0
-838.578 -4.93486 0
-836.948 -4.81217 0
-835.316 -4.68791 0
-833.686 -4.56639 0
-832.052 -4.44675 0
-830.42 -4.32419 0
-828.786 -4.20538 0
-827.149 -4.08791 0
-825.513 -3.97254 0
-823.877 -3.85802 0
-822.238 -3.74711 0
-820.599 -3.63633 0
-818.959 -3.5305 0
-817.318 -3.4265 0
-815.677 -3.32366 0
-814.035 -3.22306 0
-812.392 -3.12644 0
-810.748 -3.03388 0
-809.102 -2.94347 0
-807.458 -2.8569 0
-805.813 -2.77257 0
-804.167 -2.69398 0
-802.521 -2.61431 0
-800.875 -2.53883 0
-799.227 -2.46685 0
-797.58 -2.39689 0
-795.934 -2.33363 0
-794.284 -2.27213 0
-792.636 -2.21678 0
-790.987 -2.1613 0
-789.341 -2.11367 0
-787.693 -2.06416 0
-786.044 -2.02262 0
-784.396 -1.98277 0
-782.747 -1.94628 0
-781.1 -1.91287 0
-779.453 -1.88053 0
-777.803 -1.85174 0
-776.157 -1.8275 0
-774.508 -1.80607 0
-772.86 -1.78777 0
-771.213 -1.77078 0
-769.566 -1.75958 0
-767.92 -1.74928 0
-766.273 -1.74201 0
-764.626 -1.73594 0
-762.981 -1.73905 0
-761.336 -1.73772 0
-759.691 -1.74231 0
-758.045 -1.74727 0
-756.401 -1.75263 0
-754.757 -1.76419 0
-753.114 -1.78032 0
-751.473 -1.79469 0
-749.829 -1.81244 0
-748.186 -1.83107 0
-746.545 -1.85177 0
-744.905 -1.87507 0
-743.265 -1.89995 0
-741.623 -1.9276 0
-739.983 -1.95585 0
-738.343 -1.98456 0
-736.705 -2.01372 0
-735.065 -2.04512 0
-733.425 -2.07696 0
-731.79 -2.11094 0
-730.151 -2.14412 0
-728.514 -2.17625 0
-726.877 -2.21144 0
-725.24 -2.24982 0
-723.605 -2.2873 0
-721.969 -2.32589 0
-720.335 -2.36296 0
-718.702 -2.40222 0
-717.065 -2.44052 0
-715.432 -2.47841 0
-713.8 -2.51736 0
-712.166 -2.55872 0
-710.535 -2.59704 0
-708.905 -2.63538 0
-707.274 -2.67725 0
-705.642 -2.7151 0
-704.011 -2.75522 0
-702.381 -2.79405 0
-700.751 -2.8342 0
-699.119 -2.87297 0
-697.491 -2.91073 0
-695.862 -2.94813 0
-694.234 -2.9864 0
-692.605 -3.02246 0
-690.978 -3.05816 0
-689.347 -3.09268 0
-687.719 -3.1298 0
-686.092 -3.16198 0
-684.464 -3.19505 0
-682.835 -3.22688 0
-681.208 -3.25629 0
-679.582 -3.28707 0
-677.955 -3.31726 0
-676.328 -3.3487 0
-674.699 -3.37719 0
-673.072 -3.40392 0
-671.448 -3.43263 0
-669.824 -3.45398 0
-668.197 -3.47704 0
-666.572 -3.49943 0
-664.947 -3.52107 0
-663.323 -3.54107 0
-661.698 -3.56057 0
-660.073 -3.57818 0
-658.446 -3.59467 0
-656.82 -3.61491 0
-655.196 -3.62944 0
-653.57 -3.64561 0
-651.945 -3.65831 0
-650.32 -3.67304 0
-648.695 -3.68532 0
-647.071 -3.69451 0
-645.445 -3.70261 0
-643.819 -3.71112 0
-642.193 -3.71959 0
-640.567 -3.72742 0
-638.943 -3.73443 0
-637.318 -3.73687 0
-635.691 -3.74248 0
-634.067 -3.7445 0
-632.439 -3.74533 0
-630.812 -3.74731 0
-629.188 -3.75001 0
-627.558 -3.75138 0
-625.933 -3.74684 0
-624.308 -3.74659 0
-622.679 -3.74503 0
-621.053 -3.74621 0
-619.427 -3.74293 0
-617.802 -3.7393 0
-616.174 -3.7299 0
-614.544 -3.7259 0
-612.916 -3.71886 0
-611.29 -3.71178 0
-609.666 -3.70425 0
-608.039 -3.69874 0
-606.41 -3.68987 0
-604.782 -3.68127 0
-603.153 -3.67131 0
-601.526 -3.66224 0
-599.897 -3.64784 0
-598.268 -3.63917 0
-596.639 -3.63055 0
-595.012 -3.6178 0
-593.381 -3.60346 0
-591.75 -3.59394 0
-590.124 -3.57971 0
-588.495 -3.56643 0
-586.865 -3.55321 0
-585.234 -3.54252 0
-583.602 -3.5306 0
-581.974 -3.51554 0
-580.343 -3.50341 0
-578.712 -3.49224 0
-577.082 -3.47873 0
-575.453 -3.46702 0
-573.823 -3.4552 0
-572.193 -3.44429 0
-570.563 -3.42666 0
-568.932 -3.41332 0
-567.3 -3.39724 0
-565.667 -3.38384 0
-564.037 -3.36948 0
-562.406 -3.3597 0
-560.772 -3.34774 0
-559.142 -3.3342 0
-557.508 -3.32366 0
-555.876 -3.31226 0
-554.246 -3.30168 0
-552.612 -3.28385 0
-550.981 -3.27152 0
-549.352 -3.26269 0
-547.72 -3.25202 0
-546.085 -3.23952 0
-544.454 -3.22807 0
-542.822 -3.21856 0
-541.194 -3.20621 0
-539.562 -3.19652 0
-537.927 -3.18657 0
-536.298 -3.17814 0
-534.667 -3.16941 0
-533.033 -3.15772 0
-531.405 -3.15304 0
-529.769 -3.14323 0
-528.138 -3.13579 0
-526.505 -3.12865 0
-524.872 -3.12035 0
-523.24 -3.11184 0
-521.609 -3.10331 0
-519.977 -3.09878 0
-518.345 -3.09206 0
-516.712 -3.08699 0
-515.08 -3.08112 0
-513.446 -3.07752 0
-511.814 -3.07031 0
-510.182 -3.06754 0
-508.55 -3.06186 0
-506.919 -3.05601 0
-505.287 -3.05271 0
-503.654 -3.05037 0
-502.024 -3.04352 0
-500.389 -3.0426 0
-498.756 -3.04106 0
-497.128 -3.04066 0
-495.495 -3.03929 0
-493.861 -3.03567 0
-492.232 -3.03461 0
-490.597 -3.0292 0
-488.966 -3.02831 0
-487.335 -3.02769 0
-485.703 -3.02772 0
-484.073 -3.02958 0
-482.442 -3.03295 0
-480.808 -3.02848 0
-479.176 -3.03019 0
-477.542 -3.03036 0
-475.909 -3.03115 0
-474.276 -3.03769 0
-472.646 -3.03595 0
-471.017 -3.04132 0
-469.384 -3.04253 0
-467.753 -3.0412 0
-466.121 -3.0473 0
-464.488 -3.05095 0
-462.858 -3.0528 0
-461.228 -3.06043 0
-459.601 -3.05891 0
-457.97 -3.06417 0
-456.339 -3.06434 0
-454.704 -3.06621 0
-453.075 -3.06869 0
-451.443 -3.07397 0
-449.813 -3.07872 0
-448.179 -3.08292 0
-446.547 -3.088 0
-444.91 -3.0965 0
-443.282 -3.10107 0
-441.654 -3.10162 0
-440.021 -3.10698 0
-438.39 -3.11504 0
-436.759 -3.12049 0
-435.129 -3.12358 0
-433.5 -3.12478 0
-431.869 -3.12841 0
-430.24 -3.13209 0
-428.61 -3.13075 0
-426.981 -3.14004 0
-425.352 -3.14725 0
-423.718 -3.1553 0
-422.089 -3.15731 0
-420.454 -3.16561 0
-418.826 -3.16814 0
-417.196 -3.16949 0
-415.565 -3.17456 0
-413.934 -3.17636 0
-412.306 -3.18298 0
-410.673 -3.19016 0
-409.042 -3.19046 0
-407.413 -3.19409 0
-405.783 -3.20022 0
-404.155 -3.20476 0
-402.52 -3.20533 0
-400.889 -3.21034 0
-399.259 -3.21246 0
-397.627 -3.21776 0
-396.003 -3.22138 0
-394.373 -3.22406 0
-392.743 -3.22731 0
-391.114 -3.22896 0
-389.483 -3.22795 0
-387.851 -3.23464 0
-386.225 -3.24057 0
-384.595 -3.24256 0
-382.964 -3.24492 0
-381.333 -3.2459 0
-379.706 -3.25198 0
-378.073 -3.25496 0
-376.445 -3.2573 0
-374.817 -3.25765 0
-373.189 -3.26369 0
-371.557 -3.26608 0
-369.927 -3.26806 0
-368.296 -3.27079 0
-366.668 -3.26682 0
-365.036 -3.26485 0
-363.404 -3.26789 0
-361.775 -3.26588 0
-360.146 -3.2728 0
-358.517 -3.27438 0
-356.89 -3.27723 0
-355.26 -3.28003 0
-353.63 -3.28487 0
-352 -3.2839 0
-350.371 -3.28166 0
-348.746 -3.28304 0
-347.118 -3.2793 0
-345.485 -3.2806 0
-343.856 -3.28375 0
-342.223 -3.27757 0
-340.592 -3.28328 0
-338.963 -3.27884 0
-337.332 -3.28511 0
-335.701 -3.28589 0
-334.073 -3.28325 0
-332.443 -3.28644 0
-330.811 -3.28833 0
-329.181 -3.28948 0
-327.552 -3.2867 0
-325.921 -3.29014 0
-324.295 -3.28962 0
-322.669 -3.29387 0
-321.038 -3.2887 0
-319.408 -3.28707 0
-317.778 -3.28478 0
-316.149 -3.28519 0
-314.516 -3.28424 0
-312.886 -3.28308 0
-311.254 -3.28199 0
-309.623 -3.28508 0
-307.995 -3.28554 0
-306.364 -3.2863 0
-304.737 -3.28424 0
-303.107 -3.27642 0
-301.477 -3.27804 0
-299.85 -3.27694 0
-298.22 -3.2808 0
-296.59 -3.2742 0
-294.959 -3.27381 0
-293.331 -3.2765 0
-291.703 -3.2706 0
-290.071 -3.27089 0
-288.442 -3.27263 0
-286.815 -3.27105 0
-285.183 -3.26967 0
-283.554 -3.26735 0
-281.923 -3.26709 0
-280.29 -3.26985 0
-278.66 -3.26503 0
-277.028 -3.2621 0
-275.4 -3.26041 0
-273.769 -3.25522 0
-272.137 -3.25745 0
-270.508 -3.25212 0
-268.877 -3.25465 0
-267.247 -3.25356 0
-265.62 -3.25098 0
-263.99 -3.24957 0
-262.362 -3.24687 0
-260.729 -3.24788 0
-259.098 -3.24969 0
-257.472 -3.24814 0
-255.84 -3.2423 0
-254.21 -3.24137 0
-252.582 -3.23841 0
-250.951 -3.24028 0
-249.324 -3.2398 0
-247.693 -3.23853 0
-246.06 -3.23503 0
-244.433 -3.23486 0
-242.803 -3.23835 0
-241.174 -3.23622 0
-239.544 -3.23299 0
-237.915 -3.23242 0
-236.283 -3.23411 0
-234.655 -3.23326 0
-233.022 -3.2295 0
-231.396 -3.23 0
-229.768 -3.22668 0
-228.137 -3.229 0
-226.502 -3.2265 0
-224.87 -3.22498 0
-223.241 -3.22534 0
-221.613 -3.22273 0
-219.982 -3.22271 0
-218.35 -3.22366 0
-216.72 -3.21888 0
-215.091 -3.21719 0
-213.466 -3.21881 0
-211.833 -3.21184 0
-210.201 -3.21333 0
-208.572 -3.21381 0
-206.943 -3.2118 0
-205.314 -3.20697 0
-203.684 -3.20527 0
-202.054 -3.20638 0
-200.424 -3.20721 0
-198.795 -3.20833 0
-197.162 -3.21018 0
-195.532 -3.20862 0
-193.901 -3.20533 0
-192.27 -3.20882 0
-190.642 -3.21098 0
-189.014 -3.20992 0
-187.385 -3.20428 0
-185.754 -3.21152 0
-184.126 -3.21193 0
-182.497 -3.21154 0
-180.868 -3.21012 0
-179.237 -3.21044 0
-177.611 -3.21067 0
-175.978 -3.21279 0
-174.345 -3.20709 0
-172.718 -3.20599 0
-171.094 -3.21025 0
-169.46 -3.20922 0
-167.827 -3.20905 0
-166.199 -3.2045 0
-164.57 -3.2043 0
-162.936 -3.20928 0
-161.308 -3.20889 0
-159.682 -3.20827 0
-158.048 -3.21232 0
-156.42 -3.20886 0
-154.791 -3.20957 0
-153.16 -3.21138 0
-151.536 -3.20705 0
-149.902 -3.21277 0
-148.271 -3.21062 0
-146.643 -3.20731 0
-145.014 -3.20822 0
-143.385 -3.20571 0
-141.752 -3.20981 0
-140.125 -3.20886 0
-138.495 -3.21328 0
-136.862 -3.21396 0
-135.232 -3.21054 0
-133.603 -3.21352 0
-131.975 -3.21591 0
-130.344 -3.2159 0
-128.713 -3.21765 0
-127.083 -3.21518 0
-125.457 -3.21361 0
-123.829 -3.21429 0
-122.203 -3.21584 0
-120.571 -3.21342 0
-118.939 -3.21428 0
-117.309 -3.22014 0
-115.683 -3.21813 0
-114.054 -3.2183 0
-112.423 -3.21775 0
-110.797 -3.21862 0
-109.163 -3.22418 0
-107.534 -3.22174 0
-105.905 -3.22486 0
-104.275 -3.22215 0
-102.648 -3.22156 0
-101.018 -3.22313 0
-99.3907 -3.22284 0
-97.7613 -3.22252 0
-96.1312 -3.22316 0
-94.4987 -3.22467 0
-92.8688 -3.22528 0
-91.2414 -3.22675 0
-89.6126 -3.22698 0
-87.9804 -3.22465 0
-86.3531 -3.22683 0
-84.7261 -3.22766 0
-83.0961 -3.22434 0
-81.4641 -3.22782 0
-79.8321 -3.22246 0
-78.2031 -3.22455 0
-76.5715 -3.22517 0
-74.9403 -3.22442 0
-73.3145 -3.22221 0
-71.6873 -3.22834 0
-70.0544 -3.22928 0
-68.4235 -3.23071 0
-66.7954 -3.23021 0
-65.1646 -3.23338 0
-63.5372 -3.22877 0
-61.9082 -3.23116 0
-60.2789 -3.23089 0
-58.6476 -3.23015 0
-57.0192 -3.23133 0
-55.39 -3.23382 0
-53.7639 -3.23298 0
-52.1334 -3.23345 0
-50.5035 -3.23459 0
-48.8723 -3.23656 0
-47.2445 -3.23644 0
-45.6159 -3.23611 0
-43.9864 -3.23086 0
-42.3604 -3.22936 0
-40.7312 -3.23309 0
-39.1024 -3.23239 0
-37.4708 -3.23257 0
-35.8396 -3.23445 0
-34.2125 -3.23255 0
-32.5834 -3.23406 0
-30.9564 -3.23398 0
-29.3274 -3.23471 0
-27.7007 -3.23134 0
-26.0691 -3.23366 0
-24.4397 -3.23351 0
-22.814 -3.23247 0
-21.1832 -3.23428 0
-19.5541 -3.23166 0
-17.9256 -3.23144 0
-16.294 -3.23028 0
-14.6624 -3.23265 0
-13.0343 -3.23115 0
-11.4065 -3.22927 0
-9.77811 -3.22818 0
-8.14836 -3.22879 0
-6.51672 -3.23231 0
-4.88858 -3.23068 0
-3.25985 -3.22928 0
-1.63075 -3.22974 0
0 -3.22889 0
-1100.34 111.913 0
-1100.21 101.106 0
-1100.24 90.6663 0
-1100.23 80.4578 0
-1100.15 70.514 0
-1099.99 60.8801 0
-1099.74 51.6166 0
-1099.43 42.7958 0
-1099.05 34.477 0
-1098.61 26.6903 0
-1098.11 19.4663 0
-1097.57 12.8213 0
-1096.98 6.74993 0
-1096.44 1.19445 0
-1095.95 -3.93134 0
-1095.52 -8.68233 0
-1095.09 -13.1015 0
-1094.62 -17.1691 0
-1094.1 -20.8476 0
-1093.57 -24.1501 0
-1093.01 -27.0595 0
-1092.44 -29.5719 0
-1091.84 -31.7066 0
-1091.24 -33.4759 0
-1090.63 -34.9067 0
-1089.99 -36.0205 0
-1089.34 -36.8396 0
-1088.68 -37.3924 0
-1087.98 -37.7061 0
-1087.25 -37.7942 0
-1086.49 -37.6854 0
-1085.69 -37.3978 0
-1084.86 -36.9471 0
-1083.99 -36.3513 0
-1083.07 -35.6204 0
-1082.12 -34.7724 0
-1081.14 -33.8294 0
-1080.11 -32.7843 0
-1079.04 -31.6665 0
-1077.93 -30.476 0
-1076.79 -29.2274 0
-1075.61 -27.9318 0
-1074.39 -26.5954 0
-1073.14 -25.229 0
-1071.86 -23.8366 0
-1070.55 -22.4272 0
-1069.2 -21.0073 0
-1067.82 -19.5852 0
-1066.41 -18.1645 0
-1064.98 -16.7515 0
-1063.52 -15.3515 0
-1062.03 -13.9639 0
-1060.52 -12.6002 0
-1058.99 -11.2554 0
-1057.43 -9.94021 0
-1055.86 -8.65352 0
-1054.27 -7.39649 0
-1052.65 -6.17655 0
-1051.02 -4.99149 0
-1049.38 -3.84225 0
-1047.72 -2.7341 0
-1046.04 -1.66614 0
-1044.36 -0.641904 0
-1042.66 0.340649 0
-1040.95 1.27896 0
-1039.23 2.17405 0
-1037.5 3.02123 0
-1035.76 3.82335 0
-1034.01 4.58019 0
-1032.26 5.2912 0
-1030.5 5.95564 0
-1028.73 6.57704 0
-1026.96 7.15286 0
-1025.19 7.68106 0
-1023.41 8.16766 0
-1021.63 8.60792 0
-1019.85 9.00555 0
-1018.07 9.36191 0
-1016.28 9.677 0
-1014.5 9.95033 0
-1012.71 10.1862 0
-1010.93 10.3813 0
-1009.14 10.5417 0
-1007.36 10.663 0
-1005.58 10.7502 0
-1003.8 10.8007 0
-1002.02 10.8222 0
-1000.25 10.808 0
-998.477 10.7625 0
-996.71 10.6913 0
-994.946 10.5907 0
-993.186 10.4597 0
-991.431 10.3043 0
-989.678 10.125 0
-987.93 9.92377 0
-986.185 9.69831 0
-984.448 9.4559 0
-982.715 9.195 0
-980.987 8.91564 0
-979.263 8.61791 0
-977.544 8.30569 0
-975.83 7.98061 0
-974.12 7.64171 0
-972.416 7.29304 0
-970.72 6.93317 0