<?xml version="1.0"?>
<VTKFile type="StructuredGrid"  version="0.1" byte_order="LittleEndian" compressor="vtkZLibDataCompressor">
  <StructuredGrid WholeExtent="0 700 0 30 0 0">
    <Piece Extent="0 700 0 30 0 0">
      <PointData Vectors="Velocity">
        <DataArray type="Float32" Name="Velocity" NumberOfComponents="3" format="ascii">
-1044.99 82.6986 0
-1045.49 73.7197 0
-1046.04 64.8729 0
-1046.6 56.2404 0
-1047.2 47.8777 0
-1047.83 39.8641 0
-1048.51 32.277 0
-1049.2 25.1674 0
-1049.87 18.56 0
-1050.53 12.4729 0
-1051.14 6.9269 0
-1051.7 1.94319 0
-1052.17 -2.48071 0
-1052.5 -6.43129 0
-1052.66 -10.101 0
-1052.91 -13.5368 0
-1053.17 -16.6406 0
-1053.42 -19.3674 0
-1053.63 -21.7156 0
-1053.81 -23.6936 0
-1053.96 -25.3186 0
-1054.04 -26.6097 0
-1054.07 -27.5935 0
-1054.03 -28.2964 0
-1053.91 -28.7479 0
-1053.71 -28.9733 0
-1053.43 -28.9983 0
-1053.07 -28.845 0
-1052.63 -28.5347 0
-1052.12 -28.0826 0
-1051.52 -27.5078 0
-1050.86 -26.8277 0
-1050.12 -26.055 0
-1049.31 -25.2038 0
-1048.43 -24.2853 0
-1047.5 -23.3108 0
-1046.5 -22.2919 0
-1045.44 -21.2391 0
-1044.33 -20.1583 0
-1043.17 -19.0616 0
-1041.95 -17.9537 0
-1040.69 -16.841 0
-1039.39 -15.7315 0
-1038.05 -14.6285 0
-1036.66 -13.538 0
-1035.24 -12.4642 0
-1033.79 -11.414 0
-1032.3 -10.3883 0
-1030.78 -9.38936 0
-1029.24 -8.42178 0
-1027.67 -7.48741 0
-1026.08 -6.58861 0
-1024.47 -5.72626 0
-1022.83 -4.90148 0
-1021.18 -4.11737 0
-1019.51 -3.37396 0
-1017.83 -2.67148 0
-1016.14 -2.01026 0
-1014.43 -1.39031 0
-1012.72 -0.813308 0
-1010.99 -0.278164 0
-1009.26 0.216717 0
-1007.52 0.668968 0
-1005.77 1.08094 0
-1004.02 1.45136 0
-1002.27 1.7834 0
-1000.51 2.07641 0
-998.757 2.33143 0
-996.999 2.55006 0
-995.243 2.73184 0
-993.487 2.87925 0
-991.732 2.99179 0
-989.98 3.07338 0
-988.231 3.125 0
-986.482 3.14462 0
-984.739 3.13694 0
-983.001 3.10313 0
-981.267 3.04287 0
-979.54 2.95743 0
-977.817 2.84991 0
-976.101 2.71996 0
-974.391 2.57182 0
-972.688 2.40254 0
-970.99 2.21528 0
-969.299 2.01429 0
-967.614 1.79787 0
-965.937 1.56999 0
-964.265 1.32775 0
-962.602 1.07517 0
-960.946 0.814676 0
-959.298 0.544889 0
-957.657 0.269589 0
-956.022 -0.0129071 0
-954.394 -0.300409 0
-952.772 -0.590518 0
-951.157 -0.881582 0
-949.549 -1.17588 0
-947.947 -1.46992 0
-946.351 -1.76234 0
-944.76 -2.05482 0
-943.175 -2.34611 0
-941.597 -2.62871 0
-940.024 -2.90975 0
-938.455 -3.18672 0
-936.891 -3.45677 0
-935.331 -3.7221 0
-933.777 -3.98083 0
-932.225 -4.23169 0
-930.677 -4.47511 0
-929.133 -4.70783 0
-927.592 -4.93386 0
-926.054 -5.15228 0
-924.519 -5.359 0
-922.986 -5.55658 0
-921.457 -5.74468 0
-919.929 -5.92329 0
-918.402 -6.09115 0
-916.878 -6.24951 0
-915.356 -6.39629 0
-913.832 -6.53289 0
-912.311 -6.66067 0
-910.791 -6.77432 0
-909.269 -6.87865 0
-907.749 -6.97335 0
-906.229 -7.05869 0
-904.708 -7.13265 0
-903.186 -7.19893 0
-901.665 -7.25648 0
-900.143 -7.30312 0
-898.62 -7.33692 0
-897.095 -7.36762 0
-895.571 -7.38622 0
-894.045 -7.39819 0
-892.517 -7.39751 0
-890.989 -7.39458 0
-889.459 -7.38216 0
-887.927 -7.36312 0
-886.395 -7.33461 0
-884.862 -7.30153 0
-883.324 -7.26367 0
-881.786 -7.22064 0
-880.245 -7.16739 0
-878.701 -7.11274 0
-877.16 -7.05285 0
-875.614 -6.98642 0
-874.066 -6.92008 0
-872.518 -6.84826 0
-870.967 -6.77105 0
-869.414 -6.69209 0
-867.86 -6.61171 0
-866.303 -6.52839 0
-864.744 -6.44299 0
-863.185 -6.35515 0
-861.623 -6.26707 0
-860.06 -6.17375 0
-858.493 -6.08498 0
-856.928 -5.99187 0
-855.361 -5.89932 0
-853.789 -5.80727 0
-852.22 -5.71668 0
-850.647 -5.62524 0
-849.072 -5.53505 0
-847.497 -5.4444 0
-845.919 -5.35569 0
-844.341 -5.2668 0
-842.76 -5.1827 0
-841.18 -5.09784 0
-839.599 -5.01245 0
-838.016 -4.93048 0
-836.431 -4.85179 0
-834.848 -4.77494 0
-833.263 -4.70104 0
-831.676 -4.62972 0
-830.091 -4.5567 0
-828.502 -4.49124 0
-826.914 -4.42598 0
-825.326 -4.36142 0
-823.735 -4.30259 0
-822.146 -4.24707 0
-820.554 -4.19421 0
-818.963 -4.14448 0
-817.375 -4.09732 0
-815.783 -4.05265 0
-814.194 -4.01215 0
-812.602 -3.97244 0
-811.01 -3.93644 0
-809.421 -3.90506 0
-807.827 -3.87438 0
-806.235 -3.85008 0
-804.643 -3.82377 0
-803.051 -3.80492 0
-801.462 -3.78274 0
-799.871 -3.76601 0
-798.278 -3.75488 0
-796.688 -3.74581 0
-795.097 -3.73808 0
-793.507 -3.72929 0
-791.915 -3.72794 0
-790.326 -3.72438 0
-788.737 -3.72715 0
-787.147 -3.73233 0
-785.56 -3.7399 0
-783.974 -3.74517 0
-782.385 -3.75227 0
-780.798 -3.76384 0
-779.212 -3.777 0
-777.628 -3.79334 0
-776.042 -3.80987 0
-774.46 -3.82519 0
-772.872 -3.84648 0
-771.29 -3.86759 0
-769.706 -3.88819 0
-768.122 -3.91141 0
-766.538 -3.93822 0
-764.956 -3.96215 0
-763.376 -3.98898 0
-761.798 -4.0157 0
-760.217 -4.04344 0
-758.638 -4.07461 0
-757.06 -4.10049 0
-755.483 -4.12701 0
-753.903 -4.15542 0
-752.323 -4.18465 0
-750.745 -4.21314 0
-749.17 -4.24415 0
-747.593 -4.27478 0
-746.015 -4.30677 0
-744.441 -4.33336 0
-742.865 -4.36522 0
-741.289 -4.39366 0
-739.716 -4.42436 0
-738.142 -4.44967 0
-736.565 -4.47918 0
-734.992 -4.50998 0
-733.419 -4.53712 0
-731.846 -4.56236 0
-730.273 -4.58968 0
-728.699 -4.61495 0
-727.128 -4.64256 0
-725.558 -4.66324 0
-723.986 -4.69339 0
-722.418 -4.71385 0
-720.847 -4.73712 0
-719.275 -4.75648 0
-717.704 -4.77742 0
-716.134 -4.79603 0
-714.563 -4.81618 0
-712.995 -4.83343 0
-711.422 -4.85065 0
-709.849 -4.86982 0
-708.283 -4.88148 0
-706.713 -4.89714 0
-705.145 -4.91028 0
-703.574 -4.92205 0
-702.003 -4.93344 0
-700.434 -4.94406 0
-698.862 -4.95443 0
-697.291 -4.96314 0
-695.721 -4.97163 0
-694.149 -4.97935 0
-692.581 -4.98574 0
-691.012 -4.99145 0
-689.44 -4.99611 0
-687.872 -4.99863 0
-686.301 -5.00193 0
-684.733 -5.00416 0
-683.159 -5.00372 0
-681.59 -5.00288 0
-680.019 -5.0061 0
-678.449 -5.00611 0
-676.876 -5.00629 0
-675.304 -5.00479 0
-673.737 -5.00535 0
-672.169 -4.99966 0
-670.597 -4.99603 0
-669.024 -4.98895 0
-667.457 -4.98613 0
-665.883 -4.98262 0
-664.311 -4.97578 0
-662.741 -4.97151 0
-661.164 -4.96933 0
-659.593 -4.96219 0
-658.024 -4.95367 0
-656.451 -4.9426 0
-654.879 -4.93341 0
-653.303 -4.92682 0
-651.733 -4.91749 0
-650.161 -4.90999 0
-648.587 -4.89954 0
-647.014 -4.89408 0
-645.442 -4.88377 0
-643.871 -4.87574 0
-642.294 -4.86566 0
-640.722 -4.85669 0
-639.148 -4.84491 0
-637.574 -4.83201 0
-636 -4.82189 0
-634.426 -4.81531 0
-632.851 -4.80282 0
-631.276 -4.79214 0
-629.702 -4.78231 0
-628.127 -4.77361 0
-626.551 -4.76348 0
-624.978 -4.75552 0
-623.406 -4.74245 0
-621.829 -4.73549 0
-620.253 -4.72764 0
-618.675 -4.71756 0
-617.101 -4.71162 0
-615.523 -4.70186 0
-613.949 -4.69348 0
-612.371 -4.68442 0
-610.798 -4.67761 0
-609.223 -4.6723 0
-607.645 -4.66436 0
-606.07 -4.65656 0
-604.493 -4.64722 0
-602.917 -4.64324 0
-601.343 -4.63602 0
-599.768 -4.62768 0
-598.192 -4.62125 0
-596.614 -4.61437 0
-595.04 -4.61015 0
-593.463 -4.60315 0
-591.886 -4.59578 0
-590.307 -4.59526 0
-588.732 -4.59016 0
-587.157 -4.58496 0
-585.58 -4.58314 0
-584.004 -4.58102 0
-582.428 -4.57227 0
-580.849 -4.57148 0
-579.272 -4.56786 0
-577.694 -4.56532 0
-576.118 -4.56409 0
-574.543 -4.56199 0
-572.967 -4.55599 0
-571.391 -4.55501 0
-569.812 -4.5563 0
-568.239 -4.55373 0
-566.663 -4.55708 0
-565.083 -4.55251 0
-563.511 -4.55248 0
-561.933 -4.54942 0
-560.35 -4.55299 0
-558.778 -4.5521 0
-557.201 -4.55169 0
-555.626 -4.55504 0
-554.049 -4.55488 0
-552.473 -4.5568 0
-550.897 -4.55991 0
-549.319 -4.56412 0
-547.747 -4.566 0
-546.168 -4.56237 0
-544.593 -4.56716 0
-543.019 -4.56533 0
-541.443 -4.56773 0
-539.867 -4.56952 0
-538.292 -4.57406 0
-536.718 -4.57663 0
-535.136 -4.58159 0
-533.565 -4.57963 0
-531.989 -4.5859 0
-530.411 -4.59136 0
-528.841 -4.58907 0
-527.267 -4.59315 0
-525.691 -4.59667 0
-524.116 -4.59907 0
-522.541 -4.60201 0
-520.968 -4.60471 0
-519.391 -4.60621 0
-517.815 -4.61124 0
-516.241 -4.61735 0
-514.663 -4.61802 0
-513.093 -4.62264 0
-511.515 -4.62804 0
-509.939 -4.63161 0
-508.363 -4.62996 0
-506.79 -4.63519 0
-505.215 -4.63474 0
-503.642 -4.64146 0
-502.067 -4.64632 0
-500.491 -4.64292 0
-498.914 -4.64636 0
-497.343 -4.64977 0
-495.769 -4.65635 0
-494.193 -4.65897 0
-492.617 -4.6621 0
-491.049 -4.66882 0
-489.475 -4.66356 0
-487.9 -4.66617 0
-486.324 -4.66895 0
-484.753 -4.67706 0
-483.178 -4.67577 0
-481.605 -4.67644 0
-480.029 -4.68155 0
-478.456 -4.68203 0
-476.879 -4.68092 0
-475.304 -4.68335 0
-473.733 -4.68904 0
-472.16 -4.69131 0
-470.584 -4.68592 0
-469.014 -4.68723 0
-467.438 -4.69144 0
-465.866 -4.69619 0
-464.292 -4.6913 0
-462.717 -4.69661 0
-461.141 -4.6951 0
-459.569 -4.6952 0
-457.997 -4.69846 0
-456.424 -4.69308 0
-454.852 -4.68819 0
-453.278 -4.69169 0
-451.708 -4.69236 0
-450.129 -4.69168 0
-448.561 -4.69785 0
-446.986 -4.69876 0
-445.41 -4.69581 0
-443.832 -4.69058 0
-442.263 -4.69514 0
-440.687 -4.69413 0
-439.112 -4.69257 0
-437.537 -4.6972 0
-435.964 -4.69575 0
-434.388 -4.69951 0
-432.813 -4.69779 0
-431.244 -4.70427 0
-429.668 -4.69566 0
-428.093 -4.69533 0
-426.517 -4.69027 0
-424.946 -4.69386 0
-423.367 -4.69691 0
-421.799 -4.69226 0
-420.223 -4.69134 0
-418.652 -4.69122 0
-417.076 -4.69095 0
-415.506 -4.68562 0
-413.929 -4.68849 0
-412.349 -4.68733 0
-410.777 -4.68818 0
-409.2 -4.68552 0
-407.627 -4.68222 0
-406.049 -4.6852 0
-404.474 -4.6805 0
-402.9 -4.67923 0
-401.325 -4.67813 0
-399.752 -4.67874 0
-398.177 -4.66825 0
-396.605 -4.6724 0
-395.028 -4.66984 0
-393.457 -4.66207 0
-391.882 -4.66641 0
-390.304 -4.66544 0
-388.732 -4.66069 0
-387.155 -4.6653 0
-385.582 -4.66775 0
-384.006 -4.66266 0
-382.431 -4.66152 0
-380.858 -4.6581 0
-379.283 -4.65795 0
-377.709 -4.65801 0
-376.131 -4.65682 0
-374.559 -4.65835 0
-372.983 -4.65902 0
-371.407 -4.65815 0
-369.834 -4.653 0
-368.266 -4.65437 0
-366.695 -4.6524 0
-365.118 -4.64828 0
-363.542 -4.64611 0
-361.966 -4.64582 0
-360.388 -4.64848 0
-358.82 -4.65076 0
-357.248 -4.64983 0
-355.674 -4.64733 0
-354.101 -4.64601 0
-352.529 -4.64564 0
-350.952 -4.64645 0
-349.376 -4.64504 0
-347.804 -4.64205 0
-346.227 -4.64323 0
-344.654 -4.64428 0
-343.08 -4.64233 0
-341.506 -4.64213 0
-339.933 -4.63446 0
-338.356 -4.63189 0
-336.776 -4.63271 0
-335.208 -4.63037 0
-333.632 -4.6348 0
-332.058 -4.6349 0
-330.483 -4.63127 0
-328.907 -4.63315 0
-327.332 -4.63268 0
-325.755 -4.63283 0
-324.18 -4.63671 0
-322.604 -4.63647 0
-321.028 -4.63794 0
-319.455 -4.63598 0
-317.879 -4.63605 0
-316.307 -4.63429 0
-314.736 -4.63369 0
-313.161 -4.63511 0
-311.588 -4.63166 0
-310.009 -4.63482 0
-308.44 -4.63493 0
-306.865 -4.63599 0
-305.291 -4.63261 0
-303.719 -4.64156 0
-302.147 -4.64308 0
-300.576 -4.63899 0
-299.002 -4.63613 0
-297.427 -4.64426 0
-295.855 -4.63642 0
-294.277 -4.6375 0
-292.7 -4.63444 0
-291.129 -4.63639 0
-289.553 -4.63342 0
-287.974 -4.62663 0
-286.404 -4.63168 0
-284.827 -4.63303 0
-283.251 -4.6357 0
-281.677 -4.63793 0
-280.097 -4.63676 0
-278.525 -4.64059 0
-276.953 -4.63548 0
-275.378 -4.63883 0
-273.805 -4.63981 0
-272.235 -4.64221 0
-270.657 -4.63733 0
-269.085 -4.63859 0
-267.51 -4.64302 0
-265.936 -4.63382 0
-264.361 -4.64176 0
-262.785 -4.64236 0
-261.21 -4.64003 0
-259.634 -4.64473 0
-258.061 -4.646 0
-256.489 -4.64238 0
-254.912 -4.64085 0
-253.343 -4.63903 0
-251.771 -4.64348 0
-250.196 -4.64018 0
-248.622 -4.63907 0
-247.046 -4.63899 0
-245.477 -4.63689 0
-243.899 -4.63962 0
-242.325 -4.63825 0
-240.745 -4.64266 0
-239.177 -4.64589 0
-237.603 -4.64221 0
-236.029 -4.64806 0
-234.459 -4.64293 0
-232.885 -4.64356 0
-231.308 -4.6459 0
-229.733 -4.64505 0
-228.159 -4.64383 0
-226.585 -4.64207 0
-225.007 -4.64587 0
-223.436 -4.64023 0
-221.867 -4.64214 0
-220.294 -4.64346 0
-218.719 -4.65221 0
-217.146 -4.65017 0
-215.57 -4.64773 0
-213.995 -4.64336 0
-212.424 -4.64784 0
-210.851 -4.64765 0
-209.273 -4.6474 0
-207.699 -4.65051 0
-206.13 -4.64951 0
-204.555 -4.64616 0
-202.978 -4.64676 0
-201.409 -4.64188 0
-199.837 -4.64592 0
-198.264 -4.64091 0
-196.688 -4.64539 0
-195.119 -4.64636 0
-193.545 -4.64537 0
-191.971 -4.64981 0
-190.393 -4.65245 0
-188.821 -4.65093 0
-187.243 -4.65513 0
-185.669 -4.64784 0
-184.096 -4.64825 0
-182.519 -4.65166 0
-180.951 -4.65319 0
-179.378 -4.65353 0
-177.798 -4.64783 0
-176.225 -4.65196 0
-174.654 -4.64751 0
-173.085 -4.65359 0
-171.508 -4.65024 0
-169.933 -4.64994 0
-168.362 -4.6486 0
-166.79 -4.65014 0
-165.214 -4.64957 0
-163.641 -4.65125 0
-162.066 -4.65274 0
-160.499 -4.65298 0
-158.923 -4.65227 0
-157.347 -4.65264 0
-155.775 -4.65211 0
-154.199 -4.6534 0
-152.622 -4.65491 0
-151.052 -4.65484 0
-149.473 -4.65402 0
-147.9 -4.65652 0
-146.321 -4.64931 0
-144.748 -4.651 0
-143.175 -4.65041 0
-141.602 -4.65042 0
-140.026 -4.65304 0
-138.46 -4.65545 0
-136.887 -4.65069 0
-135.311 -4.6521 0
-133.735 -4.65386 0
-132.162 -4.65403 0
-130.59 -4.65233 0
-129.013 -4.6531 0
-127.442 -4.65243 0
-125.87 -4.64879 0
-124.299 -4.65511 0
-122.725 -4.65266 0
-121.152 -4.65009 0
-119.58 -4.65223 0
-118.009 -4.653 0
-116.436 -4.65195 0
-114.86 -4.64639 0
-113.283 -4.64847 0
-111.704 -4.64904 0
-110.134 -4.65445 0
-108.559 -4.64928 0
-106.988 -4.65268 0
-105.415 -4.65142 0
-103.84 -4.65025 0
-102.265 -4.65563 0
-100.696 -4.65387 0
-99.1222 -4.65395 0
-97.5503 -4.65498 0
-95.975 -4.65547 0
-94.4013 -4.64952 0
-92.8343 -4.6459 0
-91.2593 -4.64643 0
-89.6879 -4.65145 0
-88.1153 -4.64482 0
-86.5377 -4.64747 0
-84.9632 -4.65033 0
-83.3924 -4.6563 0
-81.8147 -4.65111 0
-80.2423 -4.65351 0
-78.6721 -4.6511 0
-77.0983 -4.64949 0
-75.5211 -4.64524 0
-73.9455 -4.64577 0
-72.3716 -4.65035 0
-70.799 -4.64398 0
-69.2244 -4.64545 0
-67.6529 -4.65415 0
-66.0789 -4.64925 0
-64.5067 -4.65424 0
-62.9389 -4.65413 0
-61.3572 -4.65188 0
-59.7872 -4.64927 0
-58.2165 -4.64977 0
-56.6468 -4.6533 0
-55.068 -4.65523 0
-53.4972 -4.65642 0
-51.9225 -4.65048 0
-50.3478 -4.65193 0
-48.7689 -4.64841 0
-47.1952 -4.64582 0
-45.6228 -4.65043 0
-44.0526 -4.64779 0
-42.4756 -4.65101 0
-40.9008 -4.65622 0
-39.3236 -4.66014 0
-37.7561 -4.64967 0
-36.1773 -4.65283 0
-34.6052 -4.64926 0
-33.0317 -4.65094 0
-31.4604 -4.64676 0
-29.8862 -4.64769 0
-28.3148 -4.65113 0
-26.7407 -4.64738 0
-25.1682 -4.64399 0
-23.5966 -4.64859 0
-22.0256 -4.64783 0
-20.4534 -4.64476 0
-18.8798 -4.65085 0
-17.3066 -4.65126 0
-15.7342 -4.64363 0
-14.1597 -4.64632 0
-12.5908 -4.65289 0
-11.0129 -4.64995 0
-9.44382 -4.65192 0
-7.86715 -4.64775 0
-6.29037 -4.64482 0
-4.71203 -4.65395 0
-3.14283 -4.64902 0
-1.56799 -4.65084 0
0 -4.65495 0
-1053.97 83.2258 0
-1054.36 74.1913 0
-1054.74 65.3089 0
-1055.1 56.646 0
-1055.42 48.2405 0
-1055.69 40.1683 0
-1055.91 32.5164 0
-1056.1 25.3492 0
-1056.25 18.6981 0
-1056.35 12.5828 0
-1056.39 7.02305 0
-1056.36 2.03837 0
-1056.29 -2.37925 0
-1056.24 -6.32331 0
-1056.28 -9.99988 0
-1056.24 -13.449 0
-1056.14 -16.5605 0
-1056.01 -19.2908 0
-1055.86 -21.6373 0
-1055.68 -23.6074 0
-1055.48 -25.2134 0
-1055.24 -26.4748 0
-1054.97 -27.4176 0
-1054.65 -28.0706 0
-1054.28 -28.4647 0
-1053.87 -28.6284 0
-1053.39 -28.5889 0
-1052.86 -28.3684 0
-1052.27 -27.9908 0
-1051.62 -27.4719 0
-1050.91 -26.8314 0
-1050.14 -26.0859 0
-1049.32 -25.2507 0
-1048.44 -24.3377 0
-1047.5 -23.3594 0
-1046.52 -22.3285 0
-1045.48 -21.255 0
-1044.39 -20.1487 0
-1043.26 -19.0184 0
-1042.08 -17.8743 0
-1040.87 -16.7217 0
-1039.61 -15.5667 0
-1038.31 -14.4165 0
-1036.97 -13.2764 0
-1035.6 -12.1508 0
-1034.2 -11.0447 0
-1032.77 -9.96356 0
-1031.31 -8.90854 0
-1029.82 -7.88327 0
-1028.31 -6.89217 0
-1026.78 -5.93497 0
-1025.22 -5.0155 0
-1023.65 -4.13396 0
-1022.05 -3.29207 0
-1020.44 -2.49227 0
-1018.81 -1.73399 0
-1017.17 -1.01959 0
-1015.52 -0.345714 0
-1013.85 0.283067 0
-1012.18 0.869459 0
-1010.49 1.41268 0
-1008.8 1.91309 0
-1007.1 2.37137 0
-1005.4 2.78741 0
-1003.69 3.16218 0
-1001.97 3.49642 0
-1000.25 3.7911 0
-998.534 4.04752 0
-996.813 4.26584 0
-995.089 4.44675 0
-993.366 4.59405 0
-991.644 4.70537 0
-989.922 4.78437 0
-988.202 4.83339 0
-986.483 4.85044 0
-984.768 4.83915 0
-983.055 4.80066 0
-981.346 4.73564 0
-979.64 4.64606 0
-977.94 4.53309 0
-976.244 4.39792 0
-974.552 4.24261 0
-972.866 4.06804 0
-971.184 3.8767 0
-969.508 3.66885 0
-967.837 3.44631 0
-966.172 3.2114 0
-964.512 2.96298 0
-962.858 2.70487 0
-961.21 2.4374 0
-959.568 2.16157 0
-957.932 1.87972 0
-956.302 1.59118 0
-954.678 1.29807 0
-953.06 1.00281 0
-951.446 0.704059 0
-949.838 0.405269 0
-948.235 0.105303 0
-946.638 -0.193086 0
-945.047 -0.491293 0
-943.459 -0.785082 0
-941.876 -1.07484 0
-940.299 -1.35995 0
-938.724 -1.64129 0
-937.154 -1.91584 0
-935.588 -2.18445 0
-934.026 -2.4469 0
-932.467 -2.70126 0
-930.913 -2.94771 0
-929.359 -3.18398 0
-927.811 -3.41299 0
-926.264 -3.63347 0
-924.719 -3.84183 0
-923.178 -4.04212 0
-921.638 -4.23293 0
-920.099 -4.41279 0
-918.563 -4.58188 0
-917.028 -4.74125 0
-915.494 -4.88933 0
-913.961 -5.02775 0
-912.428 -5.15526 0
-910.897 -5.27077 0
-909.366 -5.3745 0
-907.836 -5.46979 0
-906.306 -5.55477 0
-904.776 -5.62987 0
-903.245 -5.69496 0
-901.714 -5.75073 0
-900.182 -5.79622 0
-898.651 -5.83144 0
-897.119 -5.85939 0
-895.586 -5.87828 0
-894.051 -5.8878 0
-892.517 -5.88875 0
-890.981 -5.8828 0
-889.444 -5.86955 0
-887.906 -5.84737 0
-886.366 -5.8205 0
-884.826 -5.78478 0
-883.283 -5.74519 0
-881.738 -5.69867 0
-880.193 -5.64492 0
-878.646 -5.58878 0
-877.097 -5.52757 0
-875.548 -5.46097 0
-873.997 -5.39217 0
-872.445 -5.31747 0
-870.892 -5.24027 0
-869.337 -5.15943 0
-867.779 -5.0773 0
-866.219 -4.99147 0
-864.659 -4.90535 0
-863.098 -4.81438 0
-861.535 -4.72506 0
-859.971 -4.63092 0
-858.405 -4.53957 0
-856.838 -4.44634 0
-855.269 -4.3515 0
-853.7 -4.25863 0
-852.128 -4.16637 0
-850.556 -4.07433 0
-848.984 -3.98174 0
-847.408 -3.8895 0
-845.831 -3.80075 0
-844.256 -3.71272 0
-842.676 -3.6247 0
-841.097 -3.53863 0
-839.517 -3.45342 0
-837.936 -3.37044 0
-836.355 -3.29033 0
-834.774 -3.21421 0
-833.19 -3.13727 0
-831.606 -3.06596 0
-830.022 -2.99422 0
-828.437 -2.92766 0
-826.851 -2.86192 0
-825.264 -2.79779 0
-823.678 -2.73654 0
-822.091 -2.68108 0
-820.503 -2.62793 0
-818.916 -2.57695 0
-817.329 -2.52887 0
-815.743 -2.48477 0
-814.153 -2.44464 0
-812.564 -2.40378 0
-810.976 -2.36919 0
-809.388 -2.33772 0
-807.8 -2.30672 0
-806.21 -2.28067 0
-804.623 -2.25577 0
-803.033 -2.23518 0
-801.443 -2.21663 0
-799.855 -2.19952 0
-798.266 -2.18586 0
-796.679 -2.17755 0
-795.091 -2.17055 0
-793.502 -2.16283 0
-791.914 -2.15927 0
-790.328 -2.15834 0
-788.74 -2.1618 0
-787.153 -2.1659 0
-785.568 -2.17449 0
-783.982 -2.17994 0
-782.395 -2.18887 0
-780.81 -2.20098 0
-779.227 -2.21525 0
-777.643 -2.23044 0
-776.06 -2.24758 0
-774.477 -2.26403 0
-772.892 -2.28341 0
-771.31 -2.30517 0
-769.727 -2.32632 0
-768.145 -2.35118 0
-766.562 -2.37751 0
-764.983 -2.40496 0
-763.404 -2.4303 0
-761.823 -2.45918 0
-760.244 -2.48629 0
-758.665 -2.51667 0
-757.087 -2.54457 0
-755.508 -2.57094 0
-753.93 -2.59965 0
-752.352 -2.63068 0
-750.776 -2.65925 0
-749.199 -2.69009 0
-747.621 -2.71956 0
-746.045 -2.75167 0
-744.468 -2.7817 0
-742.893 -2.81174 0
-741.318 -2.84155 0
-739.743 -2.86916 0
-738.17 -2.89765 0
-736.594 -2.92806 0
-735.02 -2.95824 0
-733.447 -2.98467 0
-731.873 -3.01162 0
-730.298 -3.03772 0
-728.725 -3.06482 0
-727.155 -3.09188 0
-725.581 -3.11503 0
-724.01 -3.14242 0
-722.438 -3.16306 0
-720.867 -3.18668 0
-719.297 -3.20775 0
-717.726 -3.2281 0
-716.153 -3.24637 0
-714.582 -3.26775 0
-713.011 -3.28528 0
-711.439 -3.30215 0
-709.867 -3.3194 0
-708.296 -3.33398 0
-706.727 -3.34894 0
-705.155 -3.3619 0
-703.583 -3.37411 0
-702.013 -3.38554 0
-700.443 -3.39588 0
-698.87 -3.40604 0
-697.301 -3.41428 0
-695.728 -3.42352 0
-694.158 -3.4306 0
-692.586 -3.43679 0
-691.015 -3.44112 0
-689.444 -3.44649 0
-687.876 -3.45134 0
-686.305 -3.45464 0
-684.732 -3.45493 0
-683.162 -3.45473 0
-681.591 -3.45762 0
-680.022 -3.45913 0
-678.448 -3.45612 0
-676.875 -3.45626 0
-675.305 -3.45521 0
-673.735 -3.45413 0
-672.163 -3.45153 0
-670.591 -3.44602 0
-669.021 -3.44049 0
-667.45 -3.43686 0
-665.878 -3.43265 0
-664.306 -3.42788 0
-662.734 -3.4214 0
-661.162 -3.41621 0
-659.587 -3.41095 0
-658.014 -3.40434 0
-656.442 -3.39369 0
-654.87 -3.38401 0
-653.3 -3.37668 0
-651.726 -3.36663 0
-650.152 -3.35928 0
-648.58 -3.34991 0
-647.005 -3.3401 0
-645.433 -3.33108 0
-643.859 -3.32336 0
-642.285 -3.31263 0
-640.712 -3.30271 0
-639.139 -3.2905 0
-637.566 -3.28038 0
-635.991 -3.26827 0
-634.416 -3.26263 0
-632.841 -3.25005 0
-631.266 -3.23884 0
-629.691 -3.2308 0
-628.118 -3.22109 0
-626.544 -3.20907 0
-624.97 -3.20192 0
-623.392 -3.1917 0
-621.819 -3.17892 0
-620.241 -3.17056 0
-618.666 -3.1643 0
-617.089 -3.15667 0
-615.516 -3.14935 0
-613.94 -3.13921 0
-612.365 -3.13251 0
-610.792 -3.12646 0
-609.214 -3.11709 0
-607.638 -3.11101 0
-606.064 -3.10246 0
-604.488 -3.09442 0
-602.911 -3.08839 0
-601.336 -3.08233 0
-599.758 -3.07376 0
-598.184 -3.0654 0
-596.608 -3.06097 0
-595.033 -3.05609 0
-593.456 -3.05078 0
-591.881 -3.04409 0
-590.304 -3.0392 0
-588.727 -3.0356 0
-587.151 -3.03138 0
-585.577 -3.02979 0
-584.001 -3.02457 0
-582.424 -3.01885 0
-580.849 -3.01587 0
-579.271 -3.01213 0
-577.695 -3.01176 0
-576.117 -3.01079 0
-574.541 -3.00644 0
-572.965 -3.00336 0
-571.389 -3.00005 0
-569.813 -3.00055 0
-568.237 -3.00066 0
-566.66 -2.99983 0
-565.083 -2.99719 0
-563.505 -2.99791 0
-561.93 -2.99771 0
-560.354 -2.9986 0
-558.778 -2.99788 0
-557.202 -2.99838 0
-555.626 -2.99969 0
-554.048 -3.00275 0
-552.473 -3.00536 0
-550.897 -3.00624 0
-549.322 -3.00989 0
-547.746 -3.00841 0
-546.173 -3.01212 0
-544.596 -3.01127 0
-543.019 -3.01261 0
-541.444 -3.01338 0
-539.867 -3.01546 0
-538.293 -3.02134 0
-536.718 -3.02404 0
-535.142 -3.02573 0
-533.569 -3.02919 0
-531.992 -3.03292 0
-530.419 -3.03754 0
-528.845 -3.03823 0
-527.268 -3.04088 0
-525.692 -3.04424 0
-524.118 -3.04742 0
-522.542 -3.05044 0
-520.967 -3.05103 0
-519.393 -3.05419 0
-517.818 -3.05887 0
-516.244 -3.06398 0
-514.667 -3.06832 0
-513.096 -3.07001 0
-511.52 -3.07369 0
-509.946 -3.07459 0
-508.369 -3.07836 0
-506.792 -3.08001 0
-505.219 -3.08236 0
-503.647 -3.0859 0
-502.069 -3.09257 0
-500.496 -3.09222 0
-498.922 -3.09374 0
-497.345 -3.09955 0
-495.771 -3.10251 0
-494.197 -3.10588 0
-492.624 -3.11082 0
-491.05 -3.11438 0
-489.478 -3.11442 0
-487.902 -3.11519 0
-486.33 -3.11689 0
-484.756 -3.12392 0
-483.18 -3.12535 0
-481.603 -3.12701 0
-480.031 -3.1271 0
-478.456 -3.1282 0
-476.882 -3.12831 0
-475.311 -3.13028 0
-473.736 -3.13636 0
-472.16 -3.13735 0
-470.588 -3.13452 0
-469.012 -3.13425 0
-467.441 -3.13961 0
-465.869 -3.14291 0
-464.292 -3.14444 0
-462.72 -3.14357 0
-461.145 -3.14245 0
-459.572 -3.14406 0
-457.997 -3.14428 0
-456.424 -3.14212 0
-454.851 -3.13758 0
-453.28 -3.13855 0
-451.705 -3.14099 0
-450.132 -3.14304 0
-448.558 -3.14636 0
-446.985 -3.14685 0
-445.407 -3.14236 0
-443.836 -3.14185 0
-442.263 -3.14311 0
-440.688 -3.13997 0
-439.117 -3.13986 0
-437.544 -3.14222 0
-435.969 -3.14112 0
-434.394 -3.14407 0
-432.821 -3.14583 0
-431.242 -3.14896 0
-429.665 -3.14574 0
-428.091 -3.1439 0
-426.519 -3.14054 0
-424.943 -3.14442 0
-423.371 -3.14399 0
-421.797 -3.1409 0
-420.225 -3.13928 0
-418.649 -3.13876 0
-417.076 -3.14068 0
-415.5 -3.13639 0
-413.928 -3.1323 0
-412.353 -3.13511 0
-410.774 -3.13451 0
-409.201 -3.12953 0
-407.625 -3.13075 0
-406.048 -3.1316 0
-404.473 -3.12828 0
-402.898 -3.12568 0
-401.324 -3.12285 0
-399.75 -3.1218 0
-398.176 -3.11873 0
-396.601 -3.11982 0
-395.028 -3.11814 0
-393.454 -3.1152 0
-391.88 -3.11466 0
-390.306 -3.11423 0
-388.73 -3.11043 0
-387.155 -3.10962 0
-385.578 -3.1144 0
-384.003 -3.10816 0
-382.426 -3.11117 0
-380.852 -3.10915 0
-379.281 -3.10572 0
-377.706 -3.10475 0
-376.133 -3.10609 0
-374.559 -3.10558 0
-372.982 -3.10686 0
-371.408 -3.10499 0
-369.837 -3.10275 0
-368.265 -3.10292 0
-366.687 -3.09848 0
-365.112 -3.09706 0
-363.541 -3.09458 0
-361.967 -3.09359 0
-360.396 -3.09487 0
-358.819 -3.0966 0
-357.243 -3.09888 0
-355.67 -3.09621 0
-354.097 -3.0961 0
-352.523 -3.09478 0
-350.951 -3.0917 0
-349.373 -3.09005 0
-347.8 -3.09019 0
-346.224 -3.08965 0
-344.649 -3.0937 0
-343.075 -3.08983 0
-341.504 -3.09161 0
-339.929 -3.08665 0
-338.354 -3.07699 0
-336.781 -3.08151 0
-335.208 -3.07997 0
-333.632 -3.08469 0
-332.056 -3.08054 0
-330.482 -3.0764 0
-328.904 -3.08167 0
-327.331 -3.08039 0
-325.754 -3.08133 0
-324.179 -3.08048 0
-322.607 -3.08289 0
-321.029 -3.08222 0
-319.454 -3.08489 0
-317.885 -3.08289 0
-316.31 -3.07994 0
-314.732 -3.0797 0
-313.16 -3.08454 0
-311.585 -3.08268 0
-310.012 -3.08462 0
-308.438 -3.08266 0
-306.864 -3.082 0
-305.29 -3.08572 0
-303.718 -3.08819 0
-302.145 -3.08841 0
-300.568 -3.08654 0
-298.998 -3.08971 0
-297.423 -3.08679 0
-295.849 -3.08344 0
-294.275 -3.08087 0
-292.699 -3.08276 0
-291.128 -3.08291 0
-289.553 -3.08103 0
-287.978 -3.0783 0
-286.403 -3.08022 0
-284.826 -3.08149 0
-283.251 -3.08289 0
-281.675 -3.08548 0
-280.102 -3.08059 0
-278.527 -3.086 0
-276.954 -3.0822 0
-275.38 -3.08445 0
-273.806 -3.08818 0
-272.231 -3.09113 0
-270.657 -3.08502 0
-269.082 -3.08566 0
-267.507 -3.08953 0
-265.935 -3.08762 0
-264.362 -3.0879 0
-262.784 -3.08591 0
-261.208 -3.08812 0
-259.638 -3.09206 0
-258.063 -3.0924 0
-256.489 -3.09157 0
-254.917 -3.0903 0
-253.341 -3.08823 0
-251.767 -3.09238 0
-250.192 -3.08761 0
-248.621 -3.08627 0
-247.047 -3.08613 0
-245.469 -3.08513 0
-243.894 -3.08712 0
-242.325 -3.08779 0
-240.748 -3.09245 0
-239.176 -3.09208 0
-237.604 -3.08968 0
-236.032 -3.09469 0
-234.456 -3.09113 0
-232.882 -3.09197 0
-231.306 -3.0932 0
-229.733 -3.09138 0
-228.157 -3.09086 0
-226.583 -3.09259 0
-225.012 -3.0916 0
-223.44 -3.09526 0
-221.868 -3.09177 0
-220.292 -3.09423 0
-218.716 -3.09428 0
-217.14 -3.09662 0
-215.568 -3.09713 0
-213.995 -3.09491 0
-212.422 -3.09628 0
-210.849 -3.09496 0
-209.272 -3.09451 0
-207.7 -3.09898 0
-206.127 -3.09937 0
-204.554 -3.09607 0
-202.981 -3.09249 0
-201.409 -3.0938 0
-199.835 -3.09259 0
-198.263 -3.09001 0
-196.689 -3.09289 0
-195.116 -3.09738 0
-193.542 -3.09792 0
-191.97 -3.09828 0
-190.39 -3.09668 0
-188.814 -3.09641 0
-187.241 -3.09875 0
-185.666 -3.09847 0
-184.094 -3.09717 0
-182.526 -3.09805 0
-180.951 -3.1019 0
-179.375 -3.09912 0
-177.803 -3.09972 0
-176.227 -3.10034 0
-174.655 -3.09984 0
-173.081 -3.09868 0
-171.506 -3.09779 0
-169.935 -3.09606 0
-168.357 -3.09485 0
-166.782 -3.09973 0
-165.211 -3.09786 0
-163.638 -3.10013 0
-162.067 -3.09995 0
-160.495 -3.09892 0
-158.923 -3.09855 0
-157.352 -3.09931 0
-155.775 -3.10138 0
-154.2 -3.09921 0
-152.626 -3.10303 0
-151.051 -3.10337 0
-149.477 -3.10205 0
-147.9 -3.10052 0
-146.326 -3.10141 0
-144.753 -3.10129 0
-143.177 -3.10076 0
-141.607 -3.10166 0
-140.031 -3.10344 0
-138.459 -3.10233 0
-136.883 -3.09983 0
-135.31 -3.10027 0
-133.738 -3.10167 0
-132.163 -3.10065 0
-130.59 -3.1016 0
-129.018 -3.10113 0
-127.445 -3.10227 0
-125.873 -3.10108 0
-124.3 -3.10001 0
-122.727 -3.10104 0
-121.152 -3.10065 0
-119.581 -3.1007 0
-118.005 -3.10251 0
-116.433 -3.09677 0
-114.856 -3.09601 0
-113.283 -3.09891 0
-111.71 -3.09872 0
-110.135 -3.10258 0
-108.561 -3.10003 0
-106.988 -3.10112 0
-105.416 -3.10125 0
-103.844 -3.10052 0
-102.27 -3.10181 0
-100.696 -3.10213 0
-99.1215 -3.1026 0
-97.5492 -3.10362 0
-95.9761 -3.1018 0
-94.4026 -3.09875 0
-92.8317 -3.09672 0
-91.2576 -3.09784 0
-89.6845 -3.10199 0
-88.1129 -3.09338 0
-86.534 -3.09642 0
-84.9616 -3.09867 0
-83.3861 -3.09972 0
-81.8179 -3.09967 0
-80.2443 -3.10014 0
-78.6706 -3.09713 0
-77.0979 -3.09455 0
-75.5242 -3.09398 0
-73.949 -3.09607 0
-72.3743 -3.09616 0
-70.7967 -3.09434 0
-69.2246 -3.09562 0
-67.6517 -3.09889 0
-66.0759 -3.09873 0
-64.5044 -3.10313 0
-62.9336 -3.10258 0
-61.3611 -3.10185 0
-59.7887 -3.10139 0
-58.2179 -3.09893 0
-56.6416 -3.10116 0
-55.0689 -3.10305 0
-53.4952 -3.1027 0
-51.9227 -3.0982 0
-50.3487 -3.09943 0
-48.7738 -3.0946 0
-47.1993 -3.09603 0
-45.6252 -3.09884 0
-44.0499 -3.09674 0
-42.476 -3.09928 0
-40.9039 -3.10389 0
-39.3281 -3.10525 0
-37.7524 -3.10351 0
-36.1807 -3.10044 0
-34.6051 -3.09866 0
-33.032 -3.09749 0
-31.4612 -3.09626 0
-29.8879 -3.10082 0
-28.3145 -3.09579 0
-26.7422 -3.09704 0
-25.1685 -3.09594 0
-23.5979 -3.10126 0
-22.0243 -3.09817 0
-20.4535 -3.09483 0
-18.8822 -3.09987 0
-17.308 -3.09931 0
-15.735 -3.09702 0
-14.1627 -3.09627 0
-12.5887 -3.09949 0
-11.0171 -3.09932 0
-9.44353 -3.10008 0
-7.8681 -3.09792 0
-6.29251 -3.09635 0
-4.71954 -3.09826 0
-3.1462 -3.09773 0
-1.57378 -3.1014 0
0 -3.10331 0
-1063.2 84.1248 0
-1063.19 74.8434 0
-1063.34 65.9465 0
-1063.44 57.2902 0
-1063.46 48.9065 0
-1063.38 40.8506 0
-1063.21 33.1951 0
-1062.95 26.0112 0
-1062.63 19.3441 0
-1062.24 13.2203 0
-1061.79 7.65978 0
-1061.29 2.66048 0
-1060.8 -1.81921 0
-1060.37 -5.89684 0
-1060 -9.63133 0
-1059.64 -13.0355 0
-1059.21 -16.1205 0
-1058.73 -18.8452 0
-1058.22 -21.1936 0
-1057.68 -23.1638 0
-1057.12 -24.7679 0
-1056.55 -26.0208 0
-1055.97 -26.9506 0
-1055.37 -27.5821 0
-1054.75 -27.9476 0
-1054.1 -28.0759 0
-1053.42 -27.9953 0
-1052.71 -27.7311 0
-1051.97 -27.3056 0
-1051.18 -26.7387 0
-1050.35 -26.0489 0
-1049.48 -25.2533 0
-1048.56 -24.3681 0
-1047.61 -23.4059 0
-1046.61 -22.3804 0
-1045.57 -21.3032 0
-1044.49 -20.1838 0
-1043.37 -19.0336 0
-1042.22 -17.862 0
-1041.02 -16.6773 0
-1039.8 -15.486 0
-1038.53 -14.2952 0
-1037.24 -13.1108 0
-1035.91 -11.9376 0
-1034.56 -10.7816 0
-1033.18 -9.64691 0
-1031.77 -8.5375 0
-1030.33 -7.4569 0
-1028.87 -6.40828 0
-1027.39 -5.39512 0
-1025.89 -4.41677 0
-1024.37 -3.47839 0
-1022.83 -2.57931 0
-1021.27 -1.72181 0
-1019.7 -0.905592 0
-1018.11 -0.135049 0
-1016.51 0.592904 0
-1014.9 1.27749 0
-1013.27 1.91714 0
-1011.64 2.51155 0
-1010 3.06352 0
-1008.34 3.57106 0
-1006.68 4.03415 0
-1005.02 4.45578 0
-1003.35 4.83442 0
-1001.67 5.17267 0
-999.99 5.46993 0
-998.306 5.72754 0
-996.62 5.9483 0
-994.931 6.13036 0
-993.241 6.27745 0
-991.551 6.38836 0
-989.86 6.46706 0
-988.168 6.51413 0
-986.479 6.52832 0
-984.79 6.5153 0
-983.103 6.47486 0
-981.418 6.4064 0
-979.735 6.31299 0
-978.057 6.19573 0
-976.38 6.05695 0
-974.708 5.89738 0
-973.038 5.71806 0
-971.372 5.52181 0
-969.711 5.30921 0
-968.054 5.08266 0
-966.401 4.84249 0
-964.753 4.58988 0
-963.109 4.32574 0
-961.469 4.05315 0
-959.834 3.77304 0
-958.205 3.48471 0
-956.579 3.19107 0
-954.959 2.89383 0
-953.342 2.59228 0
-951.731 2.28984 0
-950.124 1.98595 0
-948.522 1.68142 0
-946.923 1.37865 0
-945.329 1.0751 0
-943.739 0.778359 0
-942.152 0.484649 0
-940.57 0.195729 0