<?xml version="1.0"?>
<VTKFile type="StructuredGrid"  version="0.1" byte_order="LittleEndian" compressor="vtkZLibDataCompressor">
  <StructuredGrid WholeExtent="0 700 0 30 0 0">
    <Piece Extent="0 700 0 30 0 0">
      <PointData Vectors="Velocity">
        <DataArray type="Float32" Name="Velocity" NumberOfComponents="3" format="ascii">
-1042.26 81.0433 0
-1042.77 72.1545 0
-1043.32 63.3977 0
-1043.9 54.8552 0
-1044.5 46.5831 0
-1045.15 38.6627 0
-1045.83 31.1722 0
-1046.52 24.1578 0
-1047.2 17.6462 0
-1047.86 11.6552 0
-1048.47 6.20538 0
-1049.03 1.31505 0
-1049.5 -3.0184 0
-1049.82 -6.88562 0
-1049.99 -10.4836 0
-1050.24 -13.845 0
-1050.49 -16.8697 0
-1050.74 -19.5183 0
-1050.95 -21.7905 0
-1051.13 -23.6975 0
-1051.26 -25.2539 0
-1051.35 -26.48 0
-1051.37 -27.404 0
-1051.31 -28.0527 0
-1051.19 -28.454 0
-1050.98 -28.6346 0
-1050.69 -28.6194 0
-1050.31 -28.4303 0
-1049.86 -28.0879 0
-1049.33 -27.6094 0
-1048.73 -27.0134 0
-1048.05 -26.3137 0
-1047.3 -25.5265 0
-1046.48 -24.6634 0
-1045.6 -23.7383 0
-1044.65 -22.761 0
-1043.64 -21.7411 0
-1042.57 -20.69 0
-1041.45 -19.6156 0
-1040.28 -18.5245 0
-1039.06 -17.4265 0
-1037.8 -16.3273 0
-1036.48 -15.2328 0
-1035.13 -14.1468 0
-1033.74 -13.0751 0
-1032.32 -12.0239 0
-1030.86 -10.9948 0
-1029.37 -9.99256 0
-1027.85 -9.01789 0
-1026.31 -8.07683 0
-1024.74 -7.16868 0
-1023.14 -6.29729 0
-1021.53 -5.46346 0
-1019.9 -4.66732 0
-1018.25 -3.91162 0
-1016.58 -3.19675 0
-1014.9 -2.52251 0
-1013.21 -1.89045 0
-1011.51 -1.30066 0
-1009.79 -0.752419 0
-1008.07 -0.245538 0
-1006.34 0.219122 0
-1004.61 0.64324 0
-1002.87 1.0275 0
-1001.12 1.37094 0
-999.379 1.67634 0
-997.63 1.94344 0
-995.881 2.17206 0
-994.132 2.36605 0
-992.382 2.52447 0
-990.634 2.64964 0
-988.888 2.74188 0
-987.144 2.80183 0
-985.404 2.83335 0
-983.666 2.83586 0
-981.932 2.81264 0
-980.205 2.75911 0
-978.482 2.6835 0
-976.765 2.5837 0
-975.054 2.46336 0
-973.348 2.32236 0
-971.647 2.16296 0
-969.953 1.98588 0
-968.267 1.79086 0
-966.586 1.58091 0
-964.913 1.35956 0
-963.247 1.12555 0
-961.588 0.880744 0
-959.935 0.626729 0
-958.291 0.363284 0
-956.651 0.0933883 0
-955.019 -0.181937 0
-953.395 -0.462555 0
-951.777 -0.745957 0
-950.166 -1.03266 0
-948.56 -1.31879 0
-946.962 -1.6074 0
-945.368 -1.89187 0
-943.783 -2.17735 0
-942.201 -2.46094 0
-940.626 -2.74095 0
-939.056 -3.01711 0
-937.49 -3.28566 0
-935.931 -3.55241 0
-934.375 -3.81102 0
-932.824 -4.06464 0
-931.276 -4.30928 0
-929.731 -4.54715 0
-928.19 -4.77755 0
-926.654 -4.99772 0
-925.12 -5.20891 0
-923.589 -5.41163 0
-922.059 -5.60553 0
-920.533 -5.78719 0
-919.009 -5.96175 0
-917.484 -6.12301 0
-915.963 -6.27436 0
-914.443 -6.41982 0
-912.923 -6.55142 0
-911.405 -6.67229 0
-909.886 -6.78571 0
-908.368 -6.8867 0
-906.851 -6.97894 0
-905.334 -7.05964 0
-903.818 -7.12917 0
-902.299 -7.19229 0
-900.781 -7.24308 0
-899.261 -7.28737 0
-897.741 -7.3208 0
-896.221 -7.3475 0
-894.7 -7.36311 0
-893.178 -7.37095 0
-891.654 -7.37092 0
-890.13 -7.36533 0
-888.603 -7.34967 0
-887.075 -7.32801 0
-885.544 -7.29923 0
-884.013 -7.26448 0
-882.48 -7.22458 0
-880.946 -7.17788 0
-879.409 -7.12715 0
-877.871 -7.06829 0
-876.329 -7.00899 0
-874.789 -6.9419 0
-873.246 -6.87317 0
-871.701 -6.79967 0
-870.153 -6.72374 0
-868.603 -6.64703 0
-867.053 -6.56518 0
-865.499 -6.47865 0
-863.944 -6.39342 0
-862.388 -6.30686 0
-860.83 -6.21832 0
-859.269 -6.13043 0
-857.707 -6.03788 0
-856.146 -5.94711 0
-854.581 -5.85457 0
-853.014 -5.76535 0
-851.446 -5.67661 0
-849.874 -5.58433 0
-848.304 -5.49472 0
-846.733 -5.4067 0
-845.159 -5.31806 0
-843.585 -5.23353 0
-842.008 -5.14834 0
-840.433 -5.06514 0
-838.854 -4.98593 0
-837.273 -4.90702 0
-835.695 -4.8276 0
-834.115 -4.75313 0
-832.533 -4.68165 0
-830.952 -4.61235 0
-829.369 -4.54432 0
-827.785 -4.47807 0
-826.201 -4.4147 0
-824.614 -4.35688 0
-823.026 -4.29969 0
-821.443 -4.24621 0
-819.858 -4.19743 0
-818.271 -4.14925 0
-816.684 -4.10373 0
-815.098 -4.06378 0
-813.51 -4.02334 0
-811.926 -3.98801 0
-810.338 -3.95249 0
-808.749 -3.92092 0
-807.161 -3.88981 0
-805.575 -3.86861 0
-803.987 -3.84706 0
-802.401 -3.82805 0
-800.814 -3.80982 0
-799.228 -3.79475 0
-797.641 -3.78538 0
-796.056 -3.77625 0
-794.473 -3.77059 0
-792.887 -3.76736 0
-791.302 -3.76455 0
-789.718 -3.76863 0
-788.134 -3.7688 0
-786.549 -3.77414 0
-784.968 -3.7816 0
-783.383 -3.79143 0
-781.799 -3.80155 0
-780.216 -3.81346 0
-778.635 -3.82789 0
-777.054 -3.84401 0
-775.473 -3.85891 0
-773.894 -3.87952 0
-772.313 -3.89991 0
-770.734 -3.92143 0
-769.157 -3.94581 0
-767.58 -3.9657 0
-765.999 -3.99261 0
-764.423 -4.01895 0
-762.847 -4.0458 0
-761.271 -4.07114 0
-759.697 -4.0974 0
-758.121 -4.12314 0
-756.547 -4.14939 0
-754.975 -4.17722 0
-753.4 -4.20893 0
-751.825 -4.23716 0
-750.253 -4.26507 0
-748.68 -4.29615 0
-747.11 -4.32561 0
-745.536 -4.35657 0
-743.966 -4.38453 0
-742.396 -4.41206 0
-740.827 -4.44107 0
-739.257 -4.46961 0
-737.688 -4.49433 0
-736.119 -4.52099 0
-734.548 -4.54999 0
-732.98 -4.57334 0
-731.413 -4.59914 0
-729.844 -4.62466 0
-728.279 -4.64722 0
-726.709 -4.66829 0
-725.141 -4.69128 0
-723.574 -4.71623 0
-722.008 -4.73653 0
-720.443 -4.7573 0
-718.876 -4.78144 0
-717.31 -4.80127 0
-715.747 -4.81668 0
-714.181 -4.83298 0
-712.613 -4.84979 0
-711.048 -4.86583 0
-709.481 -4.87843 0
-707.915 -4.89014 0
-706.349 -4.90446 0
-704.784 -4.91756 0
-703.219 -4.92793 0
-701.651 -4.94203 0
-700.087 -4.94926 0
-698.522 -4.95603 0
-696.959 -4.96301 0
-695.392 -4.97008 0
-693.826 -4.9756 0
-692.262 -4.9813 0
-690.696 -4.98406 0
-689.131 -4.98805 0
-687.565 -4.99029 0
-686 -4.99159 0
-684.431 -4.99293 0
-682.865 -4.99436 0
-681.297 -4.98801 0
-679.728 -4.9896 0
-678.164 -4.9892 0
-676.599 -4.98797 0
-675.034 -4.98352 0
-673.468 -4.97886 0
-671.9 -4.97276 0
-670.335 -4.96834 0
-668.764 -4.96156 0
-667.199 -4.95981 0
-665.632 -4.95171 0
-664.064 -4.94237 0
-662.495 -4.93676 0
-660.927 -4.92901 0
-659.359 -4.9246 0
-657.788 -4.91655 0
-656.218 -4.90465 0
-654.653 -4.89694 0
-653.082 -4.88991 0
-651.513 -4.88117 0
-649.944 -4.87298 0
-648.375 -4.86472 0
-646.807 -4.85128 0
-645.239 -4.84376 0
-643.671 -4.83712 0
-642.098 -4.82632 0
-640.528 -4.81548 0
-638.961 -4.80678 0
-637.39 -4.79453 0
-635.819 -4.78369 0
-634.251 -4.77625 0
-632.68 -4.76307 0
-631.109 -4.7543 0
-629.542 -4.74221 0
-627.971 -4.73143 0
-626.397 -4.72473 0
-624.828 -4.71629 0
-623.256 -4.70567 0
-621.681 -4.69769 0
-620.111 -4.68374 0
-618.537 -4.67645 0
-616.964 -4.66581 0
-615.393 -4.65812 0
-613.824 -4.65208 0
-612.253 -4.64556 0
-610.68 -4.635 0
-609.11 -4.628 0
-607.539 -4.62194 0
-605.969 -4.61486 0
-604.394 -4.61018 0
-602.823 -4.60501 0
-601.253 -4.59828 0
-599.677 -4.591 0
-598.106 -4.58682 0
-596.535 -4.5822 0
-594.963 -4.57329 0
-593.391 -4.56564 0
-591.817 -4.56096 0
-590.245 -4.56106 0
-588.673 -4.56175 0
-587.099 -4.55589 0
-585.529 -4.5499 0
-583.954 -4.54905 0
-582.383 -4.54043 0
-580.812 -4.54334 0
-579.238 -4.543 0
-577.667 -4.54236 0
-576.093 -4.53503 0
-574.523 -4.53346 0
-572.951 -4.53354 0
-571.379 -4.5342 0
-569.811 -4.53286 0
-568.236 -4.5315 0
-566.665 -4.53012 0
-565.094 -4.5315 0
-563.526 -4.53143 0
-561.952 -4.53091 0
-560.378 -4.53345 0
-558.804 -4.5299 0
-557.231 -4.53498 0
-555.661 -4.53823 0
-554.09 -4.53768 0
-552.518 -4.53746 0
-550.946 -4.5392 0
-549.377 -4.54106 0
-547.808 -4.54521 0
-546.234 -4.54344 0
-544.658 -4.54813 0
-543.091 -4.54975 0
-541.523 -4.54759 0
-539.948 -4.55422 0
-538.376 -4.55504 0
-536.808 -4.55926 0
-535.234 -4.5629 0
-533.662 -4.56678 0
-532.091 -4.56913 0
-530.522 -4.57123 0
-528.951 -4.57735 0
-527.378 -4.57867 0
-525.805 -4.58645 0
-524.237 -4.58974 0
-522.668 -4.5884 0
-521.097 -4.59086 0
-519.527 -4.59586 0
-517.957 -4.59867 0
-516.386 -4.60425 0
-514.813 -4.60272 0
-513.242 -4.6122 0
-511.676 -4.60882 0
-510.11 -4.61584 0
-508.539 -4.6199 0
-506.967 -4.6226 0
-505.397 -4.62848 0
-503.828 -4.62989 0
-502.259 -4.63187 0
-500.687 -4.63266 0
-499.117 -4.63959 0
-497.545 -4.63919 0
-495.979 -4.63954 0
-494.409 -4.64726 0
-492.839 -4.64705 0
-491.268 -4.64626 0
-489.699 -4.64756 0
-488.127 -4.65476 0
-486.558 -4.65468 0
-484.99 -4.65316 0
-483.417 -4.66091 0
-481.849 -4.66073 0
-480.281 -4.66524 0
-478.712 -4.66697 0
-477.14 -4.66767 0
-475.57 -4.66428 0
-474.001 -4.67156 0
-472.428 -4.66782 0
-470.856 -4.67058 0
-469.288 -4.6791 0
-467.716 -4.67417 0
-466.145 -4.6744 0
-464.579 -4.67949 0
-463.01 -4.68561 0
-461.438 -4.68468 0
-459.866 -4.68829 0
-458.301 -4.68269 0
-456.732 -4.68543 0
-455.165 -4.68904 0
-453.598 -4.69112 0
-452.029 -4.68649 0
-450.459 -4.69019 0
-448.889 -4.68721 0
-447.319 -4.68279 0
-445.745 -4.68819 0
-444.178 -4.68516 0
-442.609 -4.68613 0
-441.041 -4.68881 0
-439.472 -4.68733 0
-437.903 -4.68519 0
-436.331 -4.68832 0
-434.762 -4.68937 0
-433.192 -4.68818 0
-431.621 -4.67786 0
-430.056 -4.676 0
-428.486 -4.6812 0
-426.914 -4.68455 0
-425.344 -4.68642 0
-423.777 -4.68376 0
-422.207 -4.67872 0
-420.635 -4.6781 0
-419.066 -4.67452 0
-417.496 -4.67504 0
-415.926 -4.67163 0
-414.353 -4.66969 0
-412.782 -4.67441 0
-411.216 -4.67488 0
-409.643 -4.67089 0
-408.072 -4.66803 0
-406.507 -4.66645 0
-404.939 -4.66194 0
-403.366 -4.66669 0
-401.803 -4.66221 0
-400.23 -4.66174 0
-398.656 -4.65758 0
-397.086 -4.66311 0
-395.52 -4.66062 0
-393.95 -4.65598 0
-392.379 -4.65657 0
-390.801 -4.65517 0
-389.234 -4.65378 0
-387.667 -4.65047 0
-386.093 -4.65068 0
-384.526 -4.64668 0
-382.958 -4.65143 0
-381.385 -4.64914 0
-379.818 -4.64564 0
-378.246 -4.64528 0
-376.677 -4.64123 0
-375.106 -4.63855 0
-373.537 -4.63603 0
-371.966 -4.63675 0
-370.398 -4.63591 0
-368.828 -4.63246 0
-367.253 -4.63144 0
-365.687 -4.63699 0
-364.119 -4.62989 0
-362.547 -4.6308 0
-360.978 -4.6304 0
-359.406 -4.62911 0
-357.838 -4.63244 0
-356.267 -4.63153 0
-354.695 -4.62964 0
-353.125 -4.62856 0
-351.55 -4.62139 0
-349.976 -4.62161 0
-348.411 -4.62603 0
-346.842 -4.62288 0
-345.272 -4.62743 0
-343.705 -4.62448 0
-342.134 -4.62463 0
-340.565 -4.62664 0
-338.999 -4.62721 0
-337.426 -4.62604 0
-335.85 -4.62465 0
-334.283 -4.62434 0
-332.716 -4.62454 0
-331.148 -4.62272 0
-329.576 -4.61867 0
-328.009 -4.62005 0
-326.438 -4.62496 0
-324.86 -4.62594 0
-323.292 -4.62379 0
-321.722 -4.62234 0
-320.156 -4.6298 0
-318.584 -4.6239 0
-317.012 -4.62216 0
-315.44 -4.62451 0
-313.869 -4.62806 0
-312.301 -4.62981 0
-310.732 -4.62433 0
-309.161 -4.62129 0
-307.588 -4.62318 0
-306.023 -4.62532 0
-304.452 -4.6269 0
-302.881 -4.62613 0
-301.311 -4.62264 0
-299.739 -4.61965 0
-298.168 -4.62268 0
-296.6 -4.61867 0
-295.033 -4.62359 0
-293.462 -4.61875 0
-291.894 -4.62543 0
-290.333 -4.6245 0
-288.76 -4.62422 0
-287.189 -4.62281 0
-285.62 -4.62236 0
-284.047 -4.62493 0
-282.477 -4.62597 0
-280.905 -4.6296 0
-279.334 -4.62413 0
-277.767 -4.62904 0
-276.194 -4.62282 0
-274.625 -4.62924 0
-273.058 -4.62657 0
-271.485 -4.6274 0
-269.91 -4.63394 0
-268.341 -4.6338 0
-266.773 -4.6318 0
-265.205 -4.62788 0
-263.63 -4.62738 0
-262.057 -4.62862 0
-260.491 -4.63341 0
-258.925 -4.63129 0
-257.358 -4.63483 0
-255.79 -4.62967 0
-254.221 -4.63061 0
-252.655 -4.62885 0
-251.081 -4.62983 0
-249.507 -4.63297 0
-247.944 -4.6353 0
-246.373 -4.63534 0
-244.803 -4.63144 0
-243.236 -4.62897 0
-241.663 -4.63354 0
-240.095 -4.63701 0
-238.527 -4.64062 0
-236.954 -4.63618 0
-235.387 -4.63804 0
-233.821 -4.6365 0
-232.25 -4.6461 0
-230.679 -4.63929 0
-229.107 -4.64168 0
-227.538 -4.63687 0
-225.97 -4.63584 0
-224.403 -4.63642 0
-222.826 -4.63878 0
-221.255 -4.63962 0
-219.685 -4.6409 0
-218.116 -4.64129 0
-216.548 -4.64095 0
-214.982 -4.64433 0
-213.413 -4.64255 0
-211.842 -4.6365 0
-210.271 -4.63452 0
-208.701 -4.6361 0
-207.129 -4.63702 0
-205.564 -4.63605 0
-203.994 -4.63994 0
-202.427 -4.63634 0
-200.854 -4.6353 0
-199.287 -4.637 0
-197.718 -4.63511 0
-196.151 -4.6378 0
-194.581 -4.63981 0
-193.011 -4.64179 0
-191.439 -4.63956 0
-189.868 -4.64132 0
-188.299 -4.64219 0
-186.731 -4.64279 0
-185.157 -4.63923 0
-183.589 -4.64153 0
-182.021 -4.63845 0
-180.45 -4.63616 0
-178.885 -4.63375 0
-177.315 -4.6306 0
-175.748 -4.63471 0
-174.176 -4.63384 0
-172.606 -4.63188 0
-171.042 -4.63556 0
-169.473 -4.63385 0
-167.902 -4.62934 0
-166.333 -4.6356 0
-164.766 -4.63396 0
-163.201 -4.63433 0
-161.629 -4.63418 0
-160.057 -4.63509 0
-158.49 -4.63522 0
-156.917 -4.62999 0
-155.346 -4.62929 0
-153.775 -4.63687 0
-152.206 -4.63673 0
-150.638 -4.63412 0
-149.07 -4.63439 0
-147.5 -4.63718 0
-145.927 -4.63526 0
-144.355 -4.63149 0
-142.784 -4.62759 0
-141.215 -4.62955 0
-139.643 -4.63036 0
-138.078 -4.63093 0
-136.509 -4.63415 0
-134.943 -4.63535 0
-133.372 -4.63723 0
-131.805 -4.63683 0
-130.237 -4.63915 0
-128.667 -4.63604 0
-127.099 -4.639 0
-125.53 -4.63956 0
-123.96 -4.63608 0
-122.39 -4.63174 0
-120.824 -4.63292 0
-119.251 -4.63248 0
-117.681 -4.6335 0
-116.105 -4.63779 0
-114.536 -4.63302 0
-112.971 -4.63526 0
-111.408 -4.63237 0
-109.841 -4.63448 0
-108.27 -4.63387 0
-106.702 -4.64198 0
-105.132 -4.62883 0
-103.564 -4.63291 0
-101.992 -4.63139 0
-100.423 -4.63496 0
-98.8515 -4.62981 0
-97.2805 -4.63383 0
-95.7131 -4.6338 0
-94.1451 -4.64035 0
-92.5781 -4.63028 0
-91.0053 -4.63262 0
-89.4373 -4.63043 0
-87.8697 -4.63344 0
-86.2994 -4.63568 0
-84.7298 -4.63346 0
-83.1609 -4.63299 0
-81.5936 -4.63333 0
-80.0247 -4.63143 0
-78.4599 -4.63677 0
-76.8862 -4.63711 0
-75.3162 -4.6403 0
-73.7506 -4.63655 0
-72.182 -4.6363 0
-70.6132 -4.63677 0
-69.0405 -4.64012 0
-67.4728 -4.63749 0
-65.9037 -4.64036 0
-64.3372 -4.63527 0
-62.7675 -4.63301 0
-61.1965 -4.63768 0
-59.6237 -4.63672 0
-58.0556 -4.63466 0
-56.4888 -4.63557 0
-54.9191 -4.63681 0
-53.3486 -4.6358 0
-51.7776 -4.63648 0
-50.2076 -4.63247 0
-48.6431 -4.63578 0
-47.0752 -4.63725 0
-45.5021 -4.63966 0
-43.9361 -4.63362 0
-42.3684 -4.63743 0
-40.8004 -4.63735 0
-39.2264 -4.63363 0
-37.6561 -4.6376 0
-36.0861 -4.63761 0
-34.5199 -4.63955 0
-32.9504 -4.63521 0
-31.3772 -4.63526 0
-29.8056 -4.63995 0
-28.2337 -4.64121 0
-26.67 -4.64058 0
-25.1014 -4.63405 0
-23.5337 -4.63431 0
-21.9638 -4.63565 0
-20.3926 -4.63668 0
-18.8266 -4.63741 0
-17.2543 -4.64295 0
-15.6903 -4.64203 0
-14.1196 -4.64104 0
-12.5477 -4.63552 0
-10.9784 -4.63913 0
-9.40861 -4.63585 0
-7.84122 -4.64181 0
-6.26948 -4.63817 0
-4.70303 -4.63609 0
-3.13201 -4.63977 0
-1.56881 -4.6391 0
0 -4.63812 0
-1051.15 81.5794 0
-1051.55 72.6339 0
-1051.94 63.8415 0
-1052.31 55.2672 0
-1052.63 46.9513 0
-1052.91 38.9703 0
-1053.14 31.4142 0
-1053.33 24.3422 0
-1053.49 17.7863 0
-1053.59 11.7673 0
-1053.63 6.30296 0
-1053.6 1.4117 0
-1053.53 -2.9155 0
-1053.49 -6.77727 0
-1053.53 -10.3823 0
-1053.49 -13.7576 0
-1053.39 -16.7893 0
-1053.25 -19.4422 0
-1053.1 -21.7124 0
-1052.92 -23.6092 0
-1052.72 -25.1459 0
-1052.48 -26.3414 0
-1052.2 -27.2231 0
-1051.88 -27.8207 0
-1051.51 -28.164 0
-1051.09 -28.2822 0
-1050.61 -28.2013 0
-1050.07 -27.9451 0
-1049.47 -27.5351 0
-1048.81 -26.9892 0
-1048.1 -26.3271 0
-1047.32 -25.5628 0
-1046.49 -24.712 0
-1045.6 -23.7881 0
-1044.66 -22.8035 0
-1043.67 -21.7696 0
-1042.62 -20.6957 0
-1041.53 -19.5921 0
-1040.39 -18.4684 0
-1039.21 -17.3313 0
-1037.98 -16.1886 0
-1036.72 -15.047 0
-1035.42 -13.9128 0
-1034.08 -12.79 0
-1032.71 -11.6849 0
-1031.3 -10.6007 0
-1029.87 -9.54208 0
-1028.41 -8.51143 0
-1026.92 -7.51131 0
-1025.4 -6.54592 0
-1023.87 -5.61624 0
-1022.31 -4.72456 0
-1020.74 -3.87194 0
-1019.14 -3.06025 0
-1017.53 -2.28875 0
-1015.91 -1.55957 0
-1014.27 -0.873105 0
-1012.62 -0.230933 0
-1010.96 0.369243 0
-1009.29 0.925329 0
-1007.6 1.43871 0
-1005.92 1.91059 0
-1004.22 2.33954 0
-1002.52 2.72773 0
-1000.82 3.07439 0
-999.108 3.38186 0
-997.396 3.64994 0
-995.683 3.88012 0
-993.967 4.07484 0
-992.252 4.23212 0
-990.536 4.3557 0
-988.82 4.4458 0
-987.106 4.50443 0
-985.394 4.53213 0
-983.684 4.53089 0
-981.977 4.50226 0
-980.274 4.44641 0
-978.574 4.36595 0
-976.878 4.26124 0
-975.188 4.13523 0
-973.5 3.98943 0
-971.817 3.82431 0
-970.142 3.64032 0
-968.469 3.44098 0
-966.803 3.22529 0
-965.141 2.99755 0
-963.485 2.75756 0
-961.836 2.50489 0
-960.192 2.2444 0
-958.554 1.97524 0
-956.922 1.70012 0
-955.295 1.41788 0
-953.674 1.13145 0
-952.059 0.841515 0
-950.449 0.550341 0
-948.844 0.256451 0
-947.245 -0.0347447 0
-945.651 -0.326844 0
-944.061 -0.61715 0
-942.478 -0.904869 0
-940.898 -1.18967 0
-939.323 -1.46979 0
-937.753 -1.74483 0
-936.188 -2.01534 0
-934.626 -2.27852 0
-933.068 -2.53541 0
-931.513 -2.78338 0
-929.961 -3.02384 0
-928.413 -3.25728 0
-926.866 -3.48123 0
-925.323 -3.69447 0
-923.782 -3.89954 0
-922.244 -4.09535 0
-920.707 -4.28081 0
-919.173 -4.4537 0
-917.639 -4.61819 0
-916.108 -4.77234 0
-914.578 -4.9157 0
-913.048 -5.05021 0
-911.519 -5.17181 0
-909.99 -5.28463 0
-908.463 -5.38729 0
-906.936 -5.47813 0
-905.409 -5.55939 0
-903.882 -5.62934 0
-902.354 -5.69146 0
-900.828 -5.74278 0
-899.299 -5.78522 0
-897.769 -5.81885 0
-896.241 -5.84328 0
-894.711 -5.85929 0
-893.182 -5.86627 0
-891.651 -5.86489 0
-890.119 -5.85704 0
-888.585 -5.8415 0
-887.05 -5.81815 0
-885.514 -5.78714 0
-883.975 -5.75238 0
-882.437 -5.7105 0
-880.896 -5.6626 0
-879.355 -5.60836 0
-877.811 -5.55 0
-876.266 -5.48821 0
-874.721 -5.42041 0
-873.175 -5.35013 0
-871.627 -5.27515 0
-870.076 -5.19656 0
-868.524 -5.11649 0
-866.971 -5.03379 0
-865.416 -4.94685 0
-863.859 -4.85907 0
-862.302 -4.77029 0
-860.742 -4.68121 0
-859.181 -4.59047 0
-857.62 -4.49953 0
-856.055 -4.40593 0
-854.491 -4.31271 0
-852.925 -4.22092 0
-851.357 -4.1293 0
-849.788 -4.03793 0
-848.219 -3.94602 0
-846.646 -3.85684 0
-845.074 -3.76887 0
-843.5 -3.68131 0
-841.926 -3.59642 0
-840.35 -3.51117 0
-838.774 -3.4296 0
-837.198 -3.35009 0
-835.62 -3.27262 0
-834.042 -3.19662 0
-832.463 -3.12317 0
-830.883 -3.05203 0
-829.302 -2.98411 0
-827.721 -2.91714 0
-826.14 -2.85439 0
-824.557 -2.79413 0
-822.974 -2.73904 0
-821.392 -2.68503 0
-819.808 -2.63517 0
-818.226 -2.58716 0
-816.644 -2.54161 0
-815.06 -2.49985 0
-813.476 -2.46086 0
-811.891 -2.42364 0
-810.306 -2.38952 0
-808.721 -2.3567 0
-807.137 -2.328 0
-805.553 -2.30599 0
-803.967 -2.28396 0
-802.382 -2.26512 0
-800.798 -2.24808 0
-799.215 -2.23275 0
-797.632 -2.22364 0
-796.05 -2.21524 0
-794.466 -2.20868 0
-792.884 -2.20666 0
-791.301 -2.20387 0
-789.719 -2.20677 0
-788.136 -2.209 0
-786.555 -2.21486 0
-784.972 -2.22481 0
-783.393 -2.23214 0
-781.811 -2.24292 0
-780.229 -2.25355 0
-778.65 -2.27127 0
-777.07 -2.28648 0
-775.492 -2.30222 0
-773.913 -2.32315 0
-772.334 -2.34375 0
-770.756 -2.36748 0
-769.179 -2.39019 0
-767.602 -2.41266 0
-766.025 -2.43692 0
-764.448 -2.46524 0
-762.874 -2.49189 0
-761.297 -2.51798 0
-759.722 -2.54583 0
-758.148 -2.57235 0
-756.575 -2.60003 0
-755.002 -2.62641 0
-753.428 -2.65827 0
-751.855 -2.68561 0
-750.282 -2.71472 0
-748.711 -2.74539 0
-747.139 -2.77693 0
-745.567 -2.8063 0
-743.996 -2.83671 0
-742.424 -2.86486 0
-740.854 -2.89277 0
-739.284 -2.92272 0
-737.714 -2.94696 0
-736.146 -2.97437 0
-734.576 -3.00256 0
-733.008 -3.0282 0
-731.439 -3.05357 0
-729.869 -3.07947 0
-728.301 -3.10176 0
-726.731 -3.12414 0
-725.164 -3.1478 0
-723.598 -3.17278 0
-722.03 -3.19269 0
-720.463 -3.21432 0
-718.897 -3.23414 0
-717.33 -3.2565 0
-715.763 -3.27353 0
-714.194 -3.2887 0
-712.629 -3.30767 0
-711.063 -3.32207 0
-709.496 -3.3342 0
-707.929 -3.34707 0
-706.363 -3.36183 0
-704.795 -3.37373 0
-703.227 -3.3863 0
-701.664 -3.39642 0
-700.097 -3.40489 0
-698.533 -3.4129 0
-696.967 -3.41871 0
-695.399 -3.42705 0
-693.833 -3.43163 0
-692.265 -3.43951 0
-690.7 -3.44297 0
-689.132 -3.44485 0
-687.566 -3.44605 0
-686.001 -3.44842 0
-684.433 -3.45015 0
-682.866 -3.44987 0
-681.299 -3.44672 0
-679.731 -3.44666 0
-678.164 -3.44608 0
-676.595 -3.44253 0
-675.03 -3.44141 0
-673.462 -3.43584 0
-671.895 -3.42836 0
-670.328 -3.42442 0
-668.758 -3.41812 0
-667.191 -3.41339 0
-665.624 -3.40668 0
-664.056 -3.39823 0
-662.488 -3.39101 0
-660.919 -3.3855 0
-659.353 -3.37671 0
-657.78 -3.36659 0
-656.211 -3.36063 0
-654.643 -3.35057 0
-653.076 -3.34374 0
-651.506 -3.33544 0
-649.937 -3.32598 0
-648.367 -3.3171 0
-646.798 -3.30545 0
-645.229 -3.29851 0
-643.66 -3.28754 0
-642.091 -3.27876 0
-640.522 -3.26901 0
-638.951 -3.25846 0
-637.379 -3.24584 0
-635.811 -3.24026 0
-634.241 -3.22861 0
-632.671 -3.21489 0
-631.101 -3.20456 0
-629.53 -3.19647 0
-627.96 -3.18427 0
-626.389 -3.17855 0
-624.817 -3.16781 0
-623.245 -3.15809 0
-621.672 -3.14895 0
-620.1 -3.13644 0
-618.53 -3.12786 0
-616.956 -3.11854 0
-615.387 -3.11268 0
-613.818 -3.10632 0
-612.245 -3.0972 0
-610.674 -3.08699 0
-609.103 -3.07888 0
-607.533 -3.07351 0
-605.961 -3.06493 0
-604.387 -3.06194 0
-602.816 -3.05627 0
-601.243 -3.04983 0
-599.671 -3.04195 0
-598.101 -3.03629 0
-596.529 -3.03028 0
-594.957 -3.02489 0
-593.384 -3.01785 0
-591.814 -3.01318 0
-590.242 -3.01281 0
-588.669 -3.01081 0
-587.097 -3.00667 0
-585.524 -3.00064 0
-583.954 -2.99819 0
-582.38 -2.995 0
-580.81 -2.99292 0
-579.234 -2.99256 0
-577.664 -2.9896 0
-576.091 -2.98581 0
-574.52 -2.98418 0
-572.95 -2.98484 0
-571.378 -2.98362 0
-569.807 -2.98218 0
-568.237 -2.98214 0
-566.664 -2.98233 0
-565.093 -2.98129 0
-563.521 -2.9811 0
-561.948 -2.98074 0
-560.378 -2.98262 0
-558.806 -2.98164 0
-557.238 -2.98471 0
-555.664 -2.987 0
-554.093 -2.98805 0
-552.521 -2.98776 0
-550.948 -2.98952 0
-549.38 -2.99184 0
-547.806 -2.99439 0
-546.233 -2.99369 0
-544.661 -2.9985 0
-543.089 -3.00385 0
-541.521 -3.00138 0
-539.951 -3.00415 0
-538.378 -3.00697 0
-536.807 -3.01221 0
-535.237 -3.01472 0
-533.666 -3.01829 0
-532.096 -3.02098 0
-530.525 -3.02594 0
-528.954 -3.02991 0
-527.384 -3.0318 0
-525.812 -3.03677 0
-524.241 -3.0425 0
-522.671 -3.04377 0
-521.102 -3.0435 0
-519.533 -3.04871 0
-517.959 -3.05329 0
-516.388 -3.05305 0
-514.818 -3.05617 0
-513.248 -3.06166 0
-511.679 -3.06514 0
-510.109 -3.06833 0
-508.542 -3.07447 0
-506.973 -3.07357 0
-505.403 -3.08068 0
-503.832 -3.08119 0
-502.261 -3.08063 0
-500.691 -3.0864 0
-499.121 -3.08973 0
-497.552 -3.09051 0
-495.98 -3.09199 0
-494.408 -3.10052 0
-492.837 -3.0994 0
-491.269 -3.09908 0
-489.701 -3.10451 0
-488.129 -3.10749 0
-486.562 -3.10753 0
-484.992 -3.10826 0
-483.421 -3.11404 0
-481.851 -3.11497 0
-480.282 -3.11971 0
-478.708 -3.11809 0
-477.138 -3.12015 0
-475.572 -3.12058 0
-474 -3.12133 0
-472.429 -3.12253 0
-470.859 -3.12487 0
-469.291 -3.12857 0
-467.72 -3.12805 0
-466.15 -3.1293 0
-464.58 -3.13382 0
-463.01 -3.13299 0
-461.438 -3.1373 0
-459.871 -3.14258 0
-458.303 -3.13881 0
-456.735 -3.13683 0
-455.165 -3.13853 0
-453.596 -3.14248 0
-452.029 -3.14137 0
-450.456 -3.14078 0
-448.888 -3.1427 0
-447.319 -3.13985 0
-445.748 -3.14204 0
-444.177 -3.13942 0
-442.612 -3.14105 0
-441.041 -3.14 0
-439.473 -3.13907 0
-437.901 -3.13836 0
-436.333 -3.1404 0
-434.763 -3.14253 0
-433.188 -3.13766 0
-431.621 -3.13156 0
-430.053 -3.13095 0
-428.485 -3.13101 0
-426.91 -3.13723 0
-425.341 -3.13659 0
-423.772 -3.13637 0
-422.203 -3.13008 0
-420.634 -3.1285 0
-419.064 -3.12721 0
-417.493 -3.12854 0
-415.921 -3.12482 0
-414.349 -3.12572 0
-412.785 -3.12461 0
-411.212 -3.12287 0
-409.643 -3.12438 0
-408.074 -3.12067 0
-406.505 -3.12002 0
-404.936 -3.1185 0
-403.368 -3.11723 0
-401.797 -3.11591 0
-400.228 -3.11363 0
-398.656 -3.11145 0
-397.086 -3.11398 0
-395.515 -3.11342 0
-393.943 -3.10659 0
-392.372 -3.10615 0
-390.803 -3.10862 0
-389.234 -3.10801 0
-387.661 -3.10638 0
-386.092 -3.10318 0
-384.524 -3.10297 0
-382.956 -3.10258 0
-381.387 -3.10086 0
-379.814 -3.09917 0
-378.245 -3.09686 0
-376.676 -3.09474 0
-375.107 -3.09217 0
-373.536 -3.08897 0
-371.966 -3.09053 0
-370.395 -3.09212 0
-368.824 -3.08407 0
-367.255 -3.08508 0
-365.685 -3.08751 0
-364.116 -3.08591 0
-362.544 -3.08206 0
-360.975 -3.08303 0
-359.406 -3.08263 0
-357.833 -3.08637 0
-356.264 -3.08537 0
-354.694 -3.08044 0
-353.12 -3.07619 0
-351.554 -3.07461 0
-349.985 -3.07558 0
-348.415 -3.07781 0
-346.843 -3.07889 0
-345.273 -3.08097 0
-343.703 -3.07908 0
-342.135 -3.07434 0
-340.565 -3.0792 0
-338.996 -3.07752 0
-337.423 -3.07564 0
-335.853 -3.07646 0
-334.281 -3.07949 0
-332.711 -3.07913 0
-331.145 -3.07687 0
-329.576 -3.07694 0
-328.008 -3.07308 0
-326.438 -3.07504 0
-324.865 -3.07741 0
-323.294 -3.0771 0
-321.726 -3.07432 0
-320.152 -3.07765 0
-318.583 -3.07821 0
-317.011 -3.07387 0
-315.443 -3.07499 0
-313.871 -3.07718 0
-312.299 -3.08048 0
-310.728 -3.07801 0
-309.159 -3.0741 0
-307.592 -3.07617 0
-306.025 -3.07715 0
-304.451 -3.07727 0
-302.878 -3.07619 0
-301.308 -3.07671 0
-299.742 -3.0758 0
-298.172 -3.0703 0
-296.602 -3.07433 0
-295.034 -3.07462 0
-293.463 -3.07443 0
-291.896 -3.07976 0
-290.323 -3.0769 0
-288.754 -3.07591 0
-287.187 -3.0757 0
-285.616 -3.07381 0
-284.044 -3.07583 0
-282.478 -3.07766 0
-280.908 -3.07925 0
-279.337 -3.07866 0
-277.769 -3.0775 0
-276.196 -3.07636 0
-274.627 -3.07657 0
-273.056 -3.07826 0
-271.487 -3.08056 0
-269.917 -3.08272 0
-268.343 -3.08285 0
-266.772 -3.08438 0
-265.203 -3.0806 0
-263.634 -3.08091 0
-262.063 -3.08282 0
-260.496 -3.08568 0
-258.926 -3.08738 0
-257.359 -3.08825 0
-255.791 -3.08571 0
-254.222 -3.08347 0
-252.652 -3.08452 0
-251.079 -3.08359 0
-249.513 -3.08792 0
-247.942 -3.08888 0
-246.372 -3.08913 0
-244.801 -3.08422 0
-243.234 -3.08442 0
-241.661 -3.09087 0
-240.092 -3.09324 0
-238.524 -3.09313 0
-236.957 -3.09073 0
-235.39 -3.08987 0
-233.819 -3.09408 0
-232.25 -3.09362 0
-230.679 -3.09192 0
-229.11 -3.09195 0
-227.543 -3.08795 0
-225.973 -3.0914 0
-224.4 -3.0873 0
-222.829 -3.08737 0
-221.259 -3.0922 0
-219.689 -3.09332 0
-218.12 -3.09543 0
-216.551 -3.09668 0
-214.981 -3.09434 0
-213.408 -3.09259 0
-211.838 -3.08913 0
-210.27 -3.08974 0
-208.702 -3.0901 0
-207.134 -3.0922 0
-205.561 -3.09361 0
-203.99 -3.09262 0
-202.424 -3.09137 0
-200.856 -3.09167 0
-199.287 -3.09088 0
-197.719 -3.09007 0
-196.151 -3.09115 0
-194.581 -3.09186 0
-193.009 -3.09134 0
-191.442 -3.09405 0
-189.871 -3.09494 0
-188.301 -3.09608 0
-186.729 -3.09539 0
-185.157 -3.09321 0
-183.588 -3.09365 0
-182.02 -3.09331 0
-180.45 -3.08907 0
-178.883 -3.08983 0
-177.317 -3.08788 0
-175.747 -3.08966 0
-174.177 -3.08659 0
-172.608 -3.08775 0
-171.039 -3.09082 0
-169.469 -3.08745 0
-167.901 -3.08663 0
-166.331 -3.0884 0
-164.762 -3.08749 0
-163.196 -3.08579 0
-161.627 -3.0854 0
-160.056 -3.0854 0
-158.486 -3.08669 0
-156.916 -3.08344 0
-155.348 -3.08237 0
-153.778 -3.08853 0
-152.208 -3.09015 0
-150.634 -3.0892 0
-149.064 -3.08804 0
-147.494 -3.08624 0
-145.928 -3.0866 0
-144.357 -3.0841 0
-142.787 -3.08452 0
-141.22 -3.08488 0
-139.649 -3.08532 0
-138.078 -3.08714 0
-136.508 -3.08863 0
-134.938 -3.08724 0
-133.371 -3.08885 0
-131.804 -3.0919 0
-130.236 -3.09179 0
-128.666 -3.09114 0
-127.098 -3.09259 0
-125.532 -3.09186 0
-123.959 -3.0859 0
-122.392 -3.0874 0
-120.821 -3.08867 0
-119.25 -3.08675 0
-117.682 -3.08513 0
-116.109 -3.08698 0
-114.542 -3.09141 0
-112.975 -3.09011 0
-111.405 -3.08644 0
-109.837 -3.09024 0
-108.27 -3.08842 0
-106.699 -3.08867 0
-105.131 -3.083 0
-103.559 -3.08637 0
-101.992 -3.08683 0
-100.42 -3.08198 0
-98.8501 -3.08496 0
-97.283 -3.08687 0
-95.7178 -3.08927 0
-94.1459 -3.08885 0
-92.576 -3.08803 0
-91.0051 -3.08902 0
-89.4365 -3.0866 0
-87.8669 -3.08801 0
-86.3014 -3.09058 0
-84.7324 -3.0876 0
-83.1638 -3.08936 0
-81.5931 -3.08703 0
-80.0244 -3.08833 0
-78.456 -3.09216 0
-76.8869 -3.09034 0
-75.3153 -3.09159 0
-73.7467 -3.09282 0
-72.1797 -3.09257 0
-70.6094 -3.09168 0
-69.0403 -3.0924 0
-67.4735 -3.09266 0
-65.9015 -3.09025 0
-64.3352 -3.08925 0
-62.7653 -3.08852 0
-61.197 -3.0914 0
-59.6258 -3.08823 0
-58.054 -3.08713 0
-56.4882 -3.09047 0
-54.9163 -3.08885 0
-53.3431 -3.09018 0
-51.7768 -3.09047 0
-50.209 -3.0875 0
-48.6414 -3.09211 0
-47.0723 -3.09248 0
-45.504 -3.09257 0
-43.9357 -3.09031 0
-42.3673 -3.0909 0
-40.796 -3.08924 0
-39.2299 -3.08847 0
-37.6579 -3.08719 0
-36.0876 -3.09119 0
-34.5169 -3.09097 0
-32.9451 -3.08993 0
-31.3761 -3.09029 0
-29.8085 -3.09258 0
-28.2405 -3.09515 0
-26.6686 -3.09455 0
-25.1001 -3.08951 0
-23.5341 -3.08728 0
-21.9634 -3.08605 0
-20.3923 -3.08913 0
-18.8241 -3.09207 0
-17.2565 -3.09533 0
-15.6845 -3.09174 0
-14.1187 -3.0905 0
-12.5516 -3.0913 0
-10.9794 -3.09312 0
-9.4098 -3.09403 0
-7.84226 -3.09346 0
-6.27364 -3.09249 0
-4.70366 -3.09219 0
-3.13775 -3.09262 0
-1.56848 -3.09557 0
0 -3.0932 0
-1060.28 82.4886 0
-1060.28 73.2941 0
-1060.44 64.4858 0
-1060.55 55.9183 0
-1060.58 47.6237 0
-1060.5 39.6579 0
-1060.34 32.0967 0
-1060.09 25.0066 0
-1059.77 18.4337 0
-1059.39 12.406 0
-1058.94 6.9398 0
-1058.44 2.03269 0
-1057.96 -2.36073 0
-1057.54 -6.35769 0
-1057.17 -10.0139 0
-1056.81 -13.3415 0
-1056.38 -16.3503 0
-1055.9 -18.9983 0
-1055.39 -21.2708 0
-1054.85 -23.1676 0
-1054.3 -24.7015 0
-1053.73 -25.8889 0
-1053.14 -26.7558 0
-1052.54 -27.3311 0
-1051.92 -27.6449 0
-1051.28 -27.727 0
-1050.6 -27.6051 0
-1049.89 -27.3037 0
-1049.14 -26.8456 0
-1048.35 -26.251 0
-1047.51 -25.5385 0
-1046.64 -24.7247 0
-1045.72 -23.8238 0
-1044.76 -22.8516 0
-1043.76 -21.8188 0
-1042.72 -20.7382 0
-1041.63 -19.6196 0
-1040.51 -18.4731 0
-1039.35 -17.308 0
-1038.16 -16.1312 0
-1036.93 -14.9499 0
-1035.66 -13.7725 0
-1034.37 -12.6038 0
-1033.04 -11.4493 0
-1031.68 -10.3134 0
-1030.3 -9.20065 0
-1028.89 -8.11555 0
-1027.45 -7.0592 0
-1025.99 -6.03639 0
-1024.51 -5.04851 0
-1023.01 -4.09888 0
-1021.49 -3.18857 0
-1019.95 -2.31827 0
-1018.39 -1.49055 0
-1016.82 -0.705211 0
-1015.24 0.036858 0
-1013.64 0.734731 0
-1012.03 1.3886 0
-1010.41 1.99848 0
-1008.78 2.56286 0
-1007.14 3.08366 0
-1005.49 3.56182 0
-1003.83 3.99703 0
-1002.17 4.38925 0
-1000.5 4.7404 0
-998.832 5.05122 0
-997.157 5.32153 0
-995.479 5.55425 0
-993.797 5.74923 0
-992.116 5.90773 0
-990.431 6.03139 0
-988.747 6.12046 0
-987.063 6.17728 0
-985.38 6.20426 0
-983.697 6.20065 0
-982.016 6.16828 0
-980.338 6.10958 0
-978.661 6.02583 0
-976.987 5.91771 0
-975.315 5.78846 0
-973.646 5.63861 0
-971.983 5.46886 0
-970.322 5.28128 0
-968.665 5.07645 0
-967.012 4.8573 0
-965.363 4.62377 0
-963.719 4.37931 0
-962.079 4.12153 0
-960.443 3.85542 0
-958.812 3.58183 0
-957.187 3.30051 0
-955.565 3.0147 0
-953.948 2.7222 0
-952.335 2.42857 0
-950.727 2.13181 0
-949.123 1.83308 0
-947.524 1.5366 0
-945.93 1.241 0
-944.338 0.945641 0
-942.752 0.65332 0
-941.17 0.365664 0
-939.591 0.0804938 0
-938.015 -0.1994 0
-936.443 -0.471776 0
-934.875 -0.738407 0