<?xml version="1.0"?>
<VTKFile type="StructuredGrid"  version="0.1" byte_order="LittleEndian" compressor="vtkZLibDataCompressor">
  <StructuredGrid WholeExtent="0 700 0 30 0 0">
    <Piece Extent="0 700 0 30 0 0">
      <PointData Vectors="Velocity">
        <DataArray type="Float32" Name="Velocity" NumberOfComponents="3" format="ascii">
-1071.66 368.724 0
-1071.79 347.827 0
-1071.97 327.051 0
-1072.21 306.493 0
-1072.49 286.201 0
-1072.82 266.241 0
-1073.2 246.646 0
-1073.62 227.478 0
-1074.09 208.769 0
-1074.57 190.528 0
-1075.09 172.777 0
-1075.62 155.544 0
-1076.15 138.853 0
-1076.69 122.697 0
-1077.21 107.081 0
-1077.72 92.0278 0
-1078.2 77.5187 0
-1078.66 63.5601 0
-1079.08 50.1413 0
-1079.49 37.2507 0
-1079.85 24.8873 0
-1080.18 13.0292 0
-1080.47 1.67208 0
-1080.71 -9.2159 0
-1080.96 -19.6538 0
-1081.19 -29.6313 0
-1081.4 -39.1732 0
-1081.6 -48.2812 0
-1081.78 -56.9731 0
-1081.95 -65.2411 0
-1082.11 -73.1217 0
-1082.25 -80.6021 0
-1082.37 -87.6961 0
-1082.48 -94.4024 0
-1082.56 -100.734 0
-1082.63 -106.709 0
-1082.68 -112.326 0
-1082.7 -117.598 0
-1082.72 -122.528 0
-1082.69 -127.117 0
-1082.64 -131.383 0
-1082.58 -135.339 0
-1082.48 -138.987 0
-1082.36 -142.33 0
-1082.2 -145.388 0
-1082.01 -148.164 0
-1081.8 -150.661 0
-1081.55 -152.896 0
-1081.27 -154.875 0
-1080.96 -156.594 0
-1080.61 -158.076 0
-1080.23 -159.331 0
-1079.82 -160.355 0
-1079.36 -161.176 0
-1078.89 -161.772 0
-1078.37 -162.177 0
-1077.82 -162.393 0
-1077.23 -162.413 0
-1076.6 -162.261 0
-1075.94 -161.938 0
-1075.24 -161.453 0
-1074.52 -160.802 0
-1073.76 -160.012 0
-1072.96 -159.084 0
-1072.12 -158.016 0
-1071.26 -156.814 0
-1070.35 -155.502 0
-1069.41 -154.068 0
-1068.46 -152.514 0
-1067.46 -150.864 0
-1066.43 -149.117 0
-1065.37 -147.262 0
-1064.28 -145.332 0
-1063.15 -143.307 0
-1061.99 -141.211 0
-1060.81 -139.045 0
-1059.6 -136.797 0
-1058.36 -134.506 0
-1057.1 -132.148 0
-1055.79 -129.73 0
-1054.47 -127.272 0
-1053.12 -124.771 0
-1051.75 -122.224 0
-1050.35 -119.641 0
-1048.91 -117.018 0
-1047.46 -114.365 0
-1046 -111.691 0
-1044.5 -108.986 0
-1042.98 -106.273 0
-1041.44 -103.554 0
-1039.88 -100.802 0
-1038.29 -98.0474 0
-1036.7 -95.2896 0
-1035.08 -92.5115 0
-1033.44 -89.7456 0
-1031.79 -86.9795 0
-1030.13 -84.212 0
-1028.44 -81.4602 0
-1026.73 -78.7068 0
-1025.01 -75.9516 0
-1023.28 -73.2147 0
-1021.53 -70.4935 0
-1019.77 -67.7903 0
-1017.99 -65.1071 0
-1016.2 -62.4462 0
-1014.4 -59.8015 0
-1012.59 -57.1782 0
-1010.77 -54.5817 0
-1008.93 -52.0053 0
-1007.09 -49.4555 0
-1005.23 -46.9297 0
-1003.36 -44.4477 0
-1001.5 -41.9835 0
-999.6 -39.5619 0
-997.713 -37.163 0
-995.81 -34.7929 0
-993.905 -32.4653 0
-991.985 -30.1813 0
-990.067 -27.9308 0
-988.148 -25.701 0
-986.215 -23.5227 0
-984.284 -21.3797 0
-982.34 -19.2738 0
-980.392 -17.2181 0
-978.437 -15.1875 0
-976.48 -13.2005 0
-974.533 -11.252 0
-972.577 -9.35287 0
-970.601 -7.49753 0
-968.632 -5.6785 0
-966.665 -3.89948 0
-964.684 -2.16602 0
-962.718 -0.456048 0
-960.738 1.18726 0
-958.757 2.79241 0
-956.78 4.35723 0
-954.799 5.88543 0
-952.821 7.35953 0
-950.843 8.80176 0
-948.854 10.1989 0
-946.87 11.5485 0
-944.88 12.8595 0
-942.897 14.1297 0
-940.916 15.361 0
-938.938 16.5311 0
-936.964 17.6616 0
-934.986 18.7755 0
-933.001 19.8385 0
-931.025 20.8502 0
-929.048 21.822 0
-927.077 22.7495 0
-925.103 23.6509 0
-923.142 24.4976 0
-921.181 25.3057 0
-919.218 26.0873 0
-917.253 26.8138 0
-915.299 27.507 0
-913.346 28.1718 0
-911.392 28.7992 0
-909.445 29.3751 0
-907.51 29.926 0
-905.569 30.4324 0
-903.628 30.9087 0
-901.692 31.3515 0
-899.767 31.7476 0
-897.844 32.1177 0
-895.918 32.4464 0
-893.991 32.7418 0
-892.076 33.0107 0
-890.165 33.2443 0
-888.265 33.4405 0
-886.363 33.6135 0
-884.467 33.7528 0
-882.576 33.8541 0
-880.694 33.9238 0
-878.813 33.9765 0
-876.935 33.9858 0
-875.07 33.976 0
-873.206 33.9522 0
-871.333 33.9008 0
-869.469 33.8092 0
-867.62 33.691 0
-865.767 33.5613 0
-863.915 33.39 0
-862.073 33.2009 0
-860.244 32.9883 0
-858.417 32.7537 0
-856.589 32.5071 0
-854.768 32.2316 0
-852.956 31.9277 0
-851.145 31.6103 0
-849.337 31.2812 0
-847.538 30.918 0
-845.746 30.5416 0
-843.952 30.1593 0
-842.169 29.7546 0
-840.378 29.3335 0
-838.609 28.8988 0
-836.833 28.4498 0
-835.062 27.9793 0
-833.295 27.4984 0
-831.535 27.0031 0
-829.777 26.5001 0
-828.035 25.9914 0
-826.291 25.4597 0
-824.549 24.9231 0
-822.813 24.3799 0
-821.083 23.8238 0
-819.356 23.2693 0
-817.628 22.6969 0
-815.908 22.1222 0
-814.191 21.5354 0
-812.471 20.9383 0
-810.764 20.3404 0
-809.064 19.7423 0
-807.357 19.1371 0
-805.659 18.5332 0
-803.959 17.9201 0
-802.268 17.2974 0
-800.583 16.6761 0
-798.895 16.0631 0
-797.207 15.4445 0
-795.533 14.8145 0
-793.859 14.1932 0
-792.182 13.5666 0
-790.514 12.9464 0
-788.85 12.3249 0
-787.189 11.6952 0
-785.531 11.0762 0
-783.869 10.4571 0
-782.215 9.84625 0
-780.56 9.22984 0
-778.907 8.61593 0
-777.256 8.01821 0
-775.604 7.41286 0
-773.959 6.81446 0
-772.317 6.21433 0
-770.683 5.62507 0
-769.051 5.03722 0
-767.414 4.44895 0
-765.778 3.87615 0
-764.147 3.30621 0
-762.526 2.74191 0
-760.899 2.19002 0
-759.277 1.64256 0
-757.654 1.09242 0
-756.028 0.561028 0
-754.409 0.0313529 0
-752.791 -0.50069 0
-751.176 -1.0063 0
-749.559 -1.50785 0
-747.945 -2.00359 0
-746.326 -2.49849 0
-744.716 -2.9827 0
-743.109 -3.45859 0
-741.502 -3.91842 0
-739.893 -4.36747 0
-738.283 -4.8149 0
-736.68 -5.25165 0
-735.079 -5.68268 0
-733.472 -6.09327 0
-731.862 -6.49854 0
-730.255 -6.90302 0
-728.656 -7.2905 0
-727.056 -7.65465 0
-725.451 -8.02687 0
-723.85 -8.39215 0
-722.243 -8.73562 0
-720.647 -9.07697 0
-719.037 -9.40519 0
-717.437 -9.7191 0
-715.842 -10.0312 0
-714.243 -10.3202 0
-712.643 -10.6063 0
-711.034 -10.8857 0
-709.433 -11.1642 0
-707.836 -11.4083 0
-706.234 -11.6588 0
-704.625 -11.9021 0
-703.021 -12.1269 0
-701.423 -12.3341 0
-699.82 -12.5497 0
-698.221 -12.744 0
-696.615 -12.9338 0
-695.013 -13.1073 0
-693.406 -13.2722 0
-691.807 -13.434 0
-690.201 -13.5668 0
-688.591 -13.7034 0
-686.983 -13.8423 0
-685.378 -13.9612 0
-683.762 -14.0648 0
-682.156 -14.1721 0
-680.545 -14.2651 0
-678.935 -14.3373 0
-677.321 -14.4072 0
-675.706 -14.475 0
-674.091 -14.535 0
-672.478 -14.5829 0
-670.868 -14.6178 0
-669.253 -14.6444 0
-667.642 -14.6717 0
-666.027 -14.6827 0
-664.412 -14.676 0
-662.796 -14.6727 0
-661.172 -14.6698 0
-659.547 -14.6526 0
-657.934 -14.6283 0
-656.311 -14.5863 0
-654.685 -14.5454 0
-653.063 -14.4989 0
-651.439 -14.4427 0
-649.812 -14.3826 0
-648.178 -14.3115 0
-646.55 -14.2489 0
-644.919 -14.1605 0
-643.281 -14.0779 0
-641.649 -13.9819 0
-640.012 -13.8816 0
-638.379 -13.7715 0
-636.745 -13.6545 0
-635.105 -13.5481 0
-633.47 -13.4136 0
-631.827 -13.2951 0
-630.189 -13.1554 0
-628.553 -13.0175 0
-626.908 -12.8818 0
-625.264 -12.729 0
-623.623 -12.5794 0
-621.974 -12.4263 0
-620.33 -12.2578 0
-618.674 -12.0963 0
-617.023 -11.928 0
-615.378 -11.7653 0
-613.721 -11.5799 0
-612.067 -11.4084 0
-610.421 -11.2141 0
-608.765 -11.032 0
-607.102 -10.8378 0
-605.452 -10.6669 0
-603.797 -10.4658 0
-602.137 -10.2672 0
-600.473 -10.0667 0
-598.814 -9.87158 0
-597.152 -9.66508 0
-595.493 -9.47293 0
-593.833 -9.25212 0
-592.17 -9.04635 0
-590.5 -8.83544 0
-588.838 -8.61601 0
-587.162 -8.40931 0
-585.495 -8.20569 0
-583.824 -7.95744 0
-582.156 -7.76102 0
-580.492 -7.53757 0
-578.831 -7.32051 0
-577.146 -7.11226 0
-575.468 -6.88629 0
-573.795 -6.66541 0
-572.12 -6.45249 0
-570.434 -6.23355 0
-568.751 -6.02571 0
-567.086 -5.79972 0
-565.404 -5.58738 0
-563.734 -5.35448 0
-562.05 -5.12758 0
-560.375 -4.9149 0
-558.686 -4.69756 0
-557.001 -4.48545 0
-555.324 -4.28257 0
-553.648 -4.05599 0
-551.968 -3.85227 0
-550.28 -3.62624 0
-548.598 -3.41834 0
-546.911 -3.19859 0
-545.22 -3.00952 0
-543.536 -2.80013 0
-541.854 -2.60106 0
-540.165 -2.38301 0
-538.488 -2.17249 0
-536.795 -1.95729 0
-535.111 -1.77858 0
-533.423 -1.57134 0
-531.734 -1.3771 0
-530.044 -1.18464 0
-528.368 -1.00468 0
-526.677 -0.802731 0
-524.985 -0.624722 0
-523.298 -0.428373 0
-521.603 -0.243503 0
-519.918 -0.0631621 0
-518.227 0.115926 0
-516.534 0.298211 0
-514.84 0.464844 0
-513.155 0.631731 0
-511.459 0.795799 0
-509.775 0.961614 0
-508.08 1.12206 0
-506.386 1.28163 0
-504.701 1.43839 0
-503.006 1.6049 0
-501.314 1.75993 0
-499.618 1.90742 0
-497.923 2.04823 0
-496.234 2.20468 0
-494.534 2.34203 0
-492.848 2.47869 0
-491.147 2.6123 0
-489.454 2.74367 0
-487.753 2.86773 0
-486.067 3.0007 0
-484.371 3.12258 0
-482.679 3.24334 0
-480.98 3.36591 0
-479.283 3.4756 0
-477.585 3.58425 0
-475.894 3.68929 0
-474.207 3.79433 0
-472.504 3.89957 0
-470.812 3.99907 0
-469.111 4.09279 0
-467.416 4.18602 0
-465.718 4.26855 0
-464.029 4.34929 0
-462.33 4.42653 0
-460.635 4.51152 0
-458.935 4.59197 0
-457.249 4.64956 0
-455.555 4.72081 0
-453.86 4.79057 0
-452.167 4.84742 0
-450.467 4.91018 0
-448.778 4.96272 0
-447.08 5.01249 0
-445.388 5.0576 0
-443.695 5.09632 0
-442 5.15192 0
-440.306 5.19898 0
-438.611 5.2226 0
-436.917 5.26097 0
-435.225 5.29423 0
-433.533 5.32201 0
-431.847 5.35024 0
-430.152 5.37006 0
-428.453 5.38462 0
-426.758 5.40803 0
-425.061 5.42369 0
-423.375 5.437 0
-421.69 5.44017 0
-419.996 5.44916 0
-418.3 5.44457 0
-416.601 5.44713 0
-414.913 5.44326 0
-413.218 5.43351 0
-411.53 5.44228 0
-409.836 5.41023 0
-408.145 5.40502 0
-406.458 5.39057 0
-404.772 5.37294 0
-403.083 5.34278 0
-401.391 5.3243 0
-399.702 5.29136 0
-398.01 5.26215 0
-396.32 5.22773 0
-394.634 5.19684 0
-392.939 5.16379 0
-391.256 5.11915 0
-389.558 5.08474 0
-387.874 5.04114 0
-386.182 4.99635 0
-384.49 4.95315 0
-382.808 4.89038 0
-381.123 4.8421 0
-379.43 4.78582 0
-377.75 4.7247 0
-376.059 4.66217 0
-374.381 4.59879 0
-372.689 4.53743 0
-371.007 4.47623 0
-369.311 4.42147 0
-367.629 4.34578 0
-365.946 4.27352 0
-364.251 4.19139 0
-362.568 4.12511 0
-360.877 4.0537 0
-359.196 3.9782 0
-357.516 3.89597 0
-355.823 3.81912 0
-354.144 3.73119 0
-352.461 3.65256 0
-350.781 3.57081 0
-349.101 3.49391 0
-347.421 3.39765 0
-345.743 3.30863 0
-344.062 3.21977 0
-342.381 3.12235 0
-340.703 3.03474 0
-339.023 2.94198 0
-337.351 2.84793 0
-335.671 2.75126 0
-333.982 2.65396 0
-332.304 2.55329 0
-330.632 2.45593 0
-328.953 2.37074 0
-327.265 2.25621 0
-325.592 2.15142 0
-323.909 2.05167 0
-322.227 1.94036 0
-320.545 1.83212 0
-318.871 1.72886 0
-317.197 1.61726 0
-315.52 1.51912 0
-313.842 1.41515 0
-312.159 1.31117 0
-310.487 1.18461 0
-308.808 1.08392 0
-307.128 0.969217 0
-305.46 0.848393 0
-303.778 0.739683 0
-302.102 0.62349 0
-300.42 0.517207 0
-298.75 0.398523 0
-297.075 0.298342 0
-295.395 0.175736 0
-293.718 0.0624446 0
-292.043 -0.0543136 0
-290.371 -0.160349 0
-288.699 -0.276107 0
-287.026 -0.396901 0
-285.356 -0.516693 0
-283.678 -0.648898 0
-282.005 -0.75926 0
-280.336 -0.880631 0
-278.668 -0.988092 0
-276.993 -1.10198 0
-275.315 -1.23179 0
-273.646 -1.35057 0
-271.968 -1.4625 0
-270.301 -1.58354 0
-268.623 -1.68876 0
-266.95 -1.81709 0
-265.279 -1.93517 0
-263.611 -2.05451 0
-261.937 -2.17821 0
-260.268 -2.28024 0
-258.587 -2.41077 0
-256.911 -2.52278 0
-255.235 -2.63476 0
-253.567 -2.76688 0
-251.897 -2.87396 0
-250.223 -2.99342 0
-248.557 -3.10786 0
-246.889 -3.22116 0
-245.218 -3.3338 0
-243.542 -3.45868 0
-241.875 -3.56732 0
-240.2 -3.68975 0
-238.53 -3.79778 0
-236.853 -3.90479 0
-235.184 -4.01998 0
-233.515 -4.13098 0
-231.844 -4.25916 0
-230.174 -4.37098 0
-228.504 -4.48072 0
-226.834 -4.58579 0
-225.161 -4.70682 0
-223.489 -4.81979 0
-221.82 -4.92515 0
-220.145 -5.04485 0
-218.482 -5.15449 0
-216.812 -5.24478 0
-215.139 -5.36021 0
-213.466 -5.46957 0
-211.797 -5.57675 0
-210.136 -5.69226 0
-208.462 -5.78683 0
-206.781 -5.89139 0
-205.111 -5.99989 0
-203.445 -6.10315 0
-201.781 -6.20746 0
-200.114 -6.30122 0
-198.437 -6.39743 0
-196.772 -6.50619 0
-195.105 -6.60084 0
-193.428 -6.69354 0
-191.766 -6.80765 0
-190.091 -6.90461 0
-188.421 -7.0036 0
-186.749 -7.1078 0
-185.083 -7.20714 0
-183.406 -7.30152 0
-181.736 -7.39761 0
-180.071 -7.49625 0
-178.396 -7.58634 0
-176.724 -7.67655 0
-175.056 -7.77443 0
-173.39 -7.86651 0
-171.729 -7.95153 0
-170.064 -8.04064 0
-168.39 -8.12101 0
-166.713 -8.20672 0
-165.038 -8.29885 0
-163.366 -8.38618 0
-161.699 -8.47149 0
-160.036 -8.55707 0
-158.365 -8.64535 0
-156.696 -8.72344 0
-155.027 -8.80514 0
-153.358 -8.89666 0
-151.681 -8.97145 0
-150.024 -9.05492 0
-148.356 -9.13708 0
-146.692 -9.21389 0
-145.018 -9.29662 0
-143.351 -9.37182 0
-141.684 -9.45241 0
-140.02 -9.52763 0
-138.351 -9.59709 0
-136.678 -9.67137 0
-135.006 -9.75054 0
-133.336 -9.82695 0
-131.671 -9.89162 0
-130.005 -9.96508 0
-128.343 -10.0338 0
-126.671 -10.0863 0
-125.003 -10.1581 0
-123.33 -10.2251 0
-121.669 -10.2962 0
-120.001 -10.3613 0
-118.341 -10.4294 0
-116.67 -10.486 0
-115.005 -10.5477 0
-113.339 -10.6072 0
-111.668 -10.6656 0
-110.003 -10.7298 0
-108.336 -10.7978 0
-106.663 -10.8533 0
-105.006 -10.9141 0
-103.344 -10.9634 0
-101.678 -11.01 0
-100.005 -11.0662 0
-98.3343 -11.1265 0
-96.6571 -11.1731 0
-94.9962 -11.2168 0
-93.3357 -11.2722 0
-91.6667 -11.3215 0
-90.0003 -11.3688 0
-88.3298 -11.427 0
-86.6696 -11.4673 0
-85.0053 -11.5121 0
-83.3353 -11.5586 0
-81.6771 -11.602 0
-80.0127 -11.6468 0
-78.3401 -11.6899 0
-76.6765 -11.7423 0
-74.9963 -11.7877 0
-73.335 -11.8176 0
-71.6785 -11.8586 0
-70.013 -11.8929 0
-68.3417 -11.928 0
-66.6784 -11.9656 0
-65.0108 -11.9979 0
-63.348 -12.0401 0
-61.6788 -12.0734 0
-60.0067 -12.0982 0
-58.3337 -12.1379 0
-56.6672 -12.1694 0
-55.0069 -12.2064 0
-53.3336 -12.2342 0
-51.6623 -12.2524 0
-50.0018 -12.2912 0
-48.3316 -12.3206 0
-46.6681 -12.3404 0
-44.9987 -12.367 0
-43.338 -12.3825 0
-41.6738 -12.4033 0
-40.0088 -12.4444 0
-38.3463 -12.4531 0
-36.6744 -12.4743 0
-35.0042 -12.4925 0
-33.34 -12.5109 0
-31.665 -12.5351 0
-30.0064 -12.5507 0
-28.3367 -12.5682 0
-26.6818 -12.5894 0
-25.0086 -12.5975 0
-23.3415 -12.6071 0
-21.6779 -12.619 0
-20.0097 -12.6262 0
-18.3411 -12.6331 0
-16.6784 -12.6428 0
-15.0177 -12.6539 0
-13.3425 -12.6677 0
-11.673 -12.6749 0
-9.99778 -12.6856 0
-8.34196 -12.684 0
-6.67216 -12.6868 0
-5.00751 -12.692 0
-3.33326 -12.6932 0
-1.66896 -12.6991 0
0 -12.7009 0
-1092.56 368.873 0
-1092.58 347.939 0
-1092.6 327.14 0
-1092.61 306.562 0
-1092.6 286.254 0
-1092.59 266.268 0
-1092.58 246.643 0
-1092.57 227.444 0
-1092.57 208.71 0
-1092.58 190.44 0
-1092.59 172.679 0
-1092.59 155.438 0
-1092.58 138.737 0
-1092.57 122.58 0
-1092.54 106.971 0
-1092.49 91.9304 0
-1092.43 77.4357 0
-1092.34 63.4908 0
-1092.23 50.0881 0
-1092.1 37.2195 0
-1091.94 24.876 0
-1091.77 13.0358 0
-1091.59 1.68944 0
-1091.4 -9.19188 0
-1091.18 -19.6252 0
-1090.97 -29.6 0
-1090.75 -39.1352 0
-1090.53 -48.2466 0
-1090.29 -56.9308 0
-1090.06 -65.2025 0
-1089.82 -73.0711 0
-1089.56 -80.5452 0
-1089.3 -87.6283 0
-1089.03 -94.3259 0
-1088.75 -100.648 0
-1088.46 -106.611 0
-1088.15 -112.218 0
-1087.83 -117.472 0
-1087.5 -122.383 0
-1087.15 -126.956 0
-1086.78 -131.204 0
-1086.4 -135.14 0
-1086 -138.764 0
-1085.58 -142.087 0
-1085.14 -145.119 0
-1084.67 -147.872 0
-1084.19 -150.346 0
-1083.68 -152.554 0
-1083.15 -154.497 0
-1082.58 -156.191 0
-1082 -157.641 0
-1081.39 -158.864 0
-1080.76 -159.868 0
-1080.1 -160.649 0
-1079.41 -161.222 0
-1078.69 -161.592 0
-1077.95 -161.772 0
-1077.18 -161.765 0
-1076.38 -161.582 0
-1075.55 -161.223 0
-1074.69 -160.706 0
-1073.81 -160.033 0
-1072.9 -159.208 0
-1071.96 -158.241 0
-1071 -157.143 0
-1070 -155.914 0
-1068.99 -154.566 0
-1067.93 -153.104 0
-1066.86 -151.523 0
-1065.77 -149.843 0
-1064.64 -148.057 0
-1063.49 -146.178 0
-1062.31 -144.212 0
-1061.1 -142.163 0
-1059.87 -140.042 0
-1058.62 -137.846 0
-1057.34 -135.578 0
-1056.04 -133.252 0
-1054.71 -130.869 0
-1053.36 -128.429 0
-1051.99 -125.945 0
-1050.6 -123.419 0
-1049.18 -120.847 0
-1047.75 -118.238 0
-1046.29 -115.594 0
-1044.81 -112.918 0
-1043.32 -110.223 0
-1041.8 -107.497 0
-1040.27 -104.757 0
-1038.71 -102.016 0
-1037.13 -99.2525 0
-1035.54 -96.4725 0
-1033.93 -93.6951 0
-1032.31 -90.9114 0
-1030.67 -88.1212 0
-1029.03 -85.347 0
-1027.36 -82.5602 0
-1025.67 -79.7826 0
-1023.98 -77.0186 0
-1022.27 -74.2535 0
-1020.55 -71.5025 0
-1018.82 -68.7628 0
-1017.07 -66.05 0
-1015.32 -63.3528 0
-1013.55 -60.6722 0
-1011.77 -58.019 0
-1009.98 -55.3858 0
-1008.18 -52.7754 0
-1006.38 -50.1893 0
-1004.55 -47.6262 0
-1002.73 -45.1016 0
-1000.89 -42.6057 0
-999.048 -40.1349 0
-997.192 -37.7017 0
-995.333 -35.2939 0
-993.468 -32.9182 0
-991.596 -30.5865 0
-989.722 -28.2901 0
-987.837 -26.0297 0
-985.947 -23.8031 0
-984.055 -21.6161 0
-982.161 -19.4692 0
-980.254 -17.3551 0
-978.349 -15.2951 0
-976.433 -13.2607 0
-974.521 -11.2738 0
-972.605 -9.32431 0
-970.691 -7.42276 0
-968.767 -5.55476 0
-966.84 -3.73896 0
-964.907 -1.95268 0
-962.969 -0.213648 0
-961.039 1.48801 0
-959.104 3.13524 0
-957.173 4.74831 0
-955.239 6.31747 0
-953.303 7.83321 0
-951.358 9.3162 0
-949.422 10.7568 0
-947.485 12.1566 0
-945.541 13.5032 0
-943.605 14.8222 0
-941.663 16.0888 0
-939.719 17.3112 0
-937.781 18.4895 0
-935.844 19.6246 0
-933.903 20.7354 0
-931.968 21.7956 0
-930.037 22.8088 0
-928.1 23.7768 0
-926.167 24.7036 0
-924.236 25.5962 0
-922.309 26.4436 0
-920.381 27.252 0
-918.464 28.0309 0
-916.541 28.7564 0
-914.622 29.4494 0
-912.705 30.112 0
-910.793 30.7272 0
-908.884 31.3072 0
-906.973 31.8503 0
-905.071 32.3583 0
-903.171 32.8347 0
-901.273 33.2651 0
-899.381 33.6599 0
-897.491 34.0244 0
-895.6 34.3548 0
-893.712 34.649 0
-891.828 34.9155 0
-889.951 35.145 0
-888.085 35.3303 0
-886.208 35.5008 0
-884.351 35.6388 0
-882.488 35.7332 0
-880.634 35.8025 0
-878.78 35.8442 0
-876.937 35.8537 0
-875.088 35.8404 0
-873.246 35.8137 0
-871.409 35.7575 0
-869.576 35.6599 0
-867.744 35.5395 0
-865.918 35.3993 0
-864.1 35.2268 0
-862.28 35.0321 0
-860.468 34.8153 0
-858.656 34.5793 0
-856.858 34.3234 0
-855.059 34.0421 0
-853.258 33.7378 0
-851.471 33.4193 0
-849.681 33.0793 0
-847.899 32.7142 0
-846.123 32.3342 0
-844.347 31.9465 0
-842.578 31.5413 0
-840.811 31.115 0
-839.048 30.675 0
-837.287 30.2192 0
-835.533 29.747 0
-833.781 29.2642 0
-832.034 28.7627 0
-830.29 28.2574 0
-828.554 27.7386 0
-826.818 27.2079 0
-825.092 26.6643 0
-823.363 26.1189 0
-821.637 25.5596 0
-819.914 25.0004 0
-818.198 24.4236 0
-816.484 23.8451 0
-814.777 23.2578 0
-813.066 22.6611 0
-811.361 22.057 0
-809.661 21.4549 0
-807.963 20.8474 0
-806.268 20.2334 0
-804.577 19.6201 0
-802.885 18.997 0
-801.199 18.3744 0
-799.514 17.7545 0
-797.834 17.1287 0
-796.157 16.4993 0
-794.477 15.8728 0
-792.805 15.2435 0
-791.135 14.6217 0
-789.468 13.9951 0
-787.807 13.3631 0
-786.143 12.7418 0
-784.486 12.1233 0
-782.828 11.5092 0
-781.169 10.8945 0
-779.517 10.279 0
-777.861 9.6756 0
-776.211 9.06991 0
-774.562 8.46718 0
-772.913 7.86554 0
-771.271 7.27146 0
-769.632 6.68177 0
-767.988 6.0949 0
-766.352 5.51817 0
-764.716 4.94197 0
-763.082 4.37762 0
-761.455 3.82402 0
-759.819 3.27335 0
-758.192 2.72901 0
-756.56 2.18972 0
-754.935 1.66174 0
-753.306 1.12789 0
-751.678 0.620599 0
-750.055 0.116797 0
-748.432 -0.383277 0
-746.814 -0.875994 0
-745.195 -1.36332 0
-743.576 -1.83442 0
-741.958 -2.29883 0
-740.34 -2.7547 0
-738.726 -3.19967 0
-737.108 -3.63637 0
-735.495 -4.06595 0
-733.879 -4.47649 0
-732.266 -4.88685 0
-730.65 -5.28677 0
-729.032 -5.679 0
-727.423 -6.0489 0
-725.818 -6.41517 0
-724.2 -6.77759 0
-722.59 -7.12813 0
-720.981 -7.46756 0
-719.37 -7.7918 0
-717.755 -8.10942 0
-716.143 -8.41912 0
-714.531 -8.71426 0
-712.922 -8.99784 0
-711.313 -9.27876 0
-709.694 -9.54916 0
-708.083 -9.80535 0
-706.471 -10.0562 0
-704.858 -10.29 0
-703.246 -10.5191 0
-701.636 -10.7264 0
-700.022 -10.9341 0
-698.409 -11.1382 0
-696.798 -11.3236 0
-695.184 -11.5014 0
-693.569 -11.6609 0
-691.955 -11.8154 0
-690.339 -11.9595 0
-688.72 -12.0877 0
-687.107 -12.225 0
-685.488 -12.3454 0
-683.87 -12.4553 0
-682.249 -12.5582 0
-680.633 -12.6473 0
-679.014 -12.7213 0
-677.391 -12.7908 0
-675.774 -12.8561 0
-674.15 -12.9134 0
-672.529 -12.9631 0
-670.902 -13.0011 0
-669.281 -13.0279 0
-667.658 -13.0472 0
-666.037 -13.0617 0
-664.413 -13.0582 0
-662.786 -13.0529 0
-661.162 -13.0437 0
-659.529 -13.0303 0
-657.893 -13.0068 0
-656.268 -12.9609 0
-654.642 -12.9225 0
-653.011 -12.8756 0
-651.378 -12.8187 0
-649.746 -12.7542 0
-648.111 -12.6875 0
-646.472 -12.6181 0
-644.836 -12.5305 0
-643.195 -12.4419 0
-641.556 -12.3427 0
-639.915 -12.244 0
-638.271 -12.1372 0
-636.632 -12.0204 0
-634.992 -11.9079 0
-633.348 -11.7745 0
-631.703 -11.6511 0
-630.052 -11.5163 0
-628.408 -11.377 0
-626.765 -11.235 0
-625.115 -11.0884 0
-623.469 -10.9379 0
-621.816 -10.7831 0
-620.171 -10.6111 0
-618.515 -10.4507 0
-616.857 -10.2793 0
-615.201 -10.104 0
-613.545 -9.92696 0
-611.888 -9.75614 0
-610.229 -9.56997 0
-608.574 -9.37354 0
-606.918 -9.19223 0
-605.261 -9.00562 0
-603.595 -8.807 0
-601.939 -8.61379 0
-600.274 -8.40705 0
-598.618 -8.21428 0
-596.951 -8.00402 0
-595.288 -7.81202 0
-593.624 -7.59146 0
-591.959 -7.38551 0
-590.286 -7.16646 0
-588.616 -6.95954 0
-586.95 -6.73737 0
-585.275 -6.53358 0
-583.602 -6.30241 0
-581.944 -6.08912 0
-580.271 -5.87806 0
-578.604 -5.65344 0
-576.931 -5.43154 0
-575.254 -5.21696 0
-573.571 -4.9966 0
-571.9 -4.77146 0
-570.221 -4.56175 0
-568.539 -4.34737 0
-566.869 -4.12574 0
-565.189 -3.90494 0
-563.506 -3.68252 0
-561.834 -3.45465 0
-560.155 -3.23737 0
-558.478 -3.01659 0
-556.796 -2.80558 0
-555.112 -2.60644 0
-553.433 -2.38392 0
-551.754 -2.16897 0
-550.068 -1.94606 0
-548.387 -1.7314 0
-546.705 -1.51959 0
-545.027 -1.32023 0
-543.338 -1.12028 0
-541.651 -0.903921 0
-539.962 -0.707548 0
-538.273 -0.482639 0
-536.592 -0.286521 0
-534.916 -0.0868194 0
-533.224 0.112397 0
-531.532 0.310608 0
-529.856 0.4956 0
-528.169 0.684796 0
-526.48 0.880162 0
-524.797 1.06559 0
-523.107 1.25571 0
-521.421 1.44374 0
-519.736 1.62843 0
-518.044 1.80195 0
-516.359 1.98258 0
-514.672 2.15799 0
-512.984 2.31911 0
-511.299 2.48571 0
-509.611 2.64867 0
-507.917 2.81631 0
-506.227 2.97611 0
-504.537 3.1347 0
-502.85 3.29641 0
-501.16 3.4477 0
-499.471 3.59499 0
-497.778 3.74583 0
-496.083 3.88905 0
-494.396 4.02715 0
-492.703 4.17066 0
-491.016 4.30777 0
-489.322 4.43769 0
-487.631 4.55717 0
-485.939 4.68671 0
-484.251 4.81718 0
-482.556 4.93806 0
-480.863 5.05532 0
-479.168 5.16916 0
-477.48 5.27869 0
-475.788 5.38255 0
-474.099 5.49131 0
-472.406 5.59563 0
-470.717 5.69169 0
-469.017 5.78743 0
-467.326 5.8748 0
-465.641 5.96005 0
-463.943 6.03719 0
-462.249 6.11964 0
-460.558 6.20393 0
-458.872 6.28115 0
-457.173 6.34339 0
-455.486 6.41021 0
-453.799 6.47963 0
-452.106 6.53747 0
-450.419 6.60058 0
-448.724 6.65629 0
-447.032 6.70739 0
-445.342 6.74735 0
-443.646 6.79532 0
-441.956 6.84345 0
-440.268 6.88858 0
-438.576 6.91903 0
-436.879 6.95481 0
-435.194 6.98184 0
-433.511 7.00823 0
-431.821 7.03862 0
-430.133 7.062 0
-428.438 7.08305 0
-426.745 7.09871 0
-425.053 7.11436 0
-423.365 7.12635 0
-421.675 7.12728 0
-419.989 7.14034 0
-418.297 7.13647 0
-416.608 7.1369 0
-414.919 7.13715 0
-413.227 7.12799 0
-411.536 7.12471 0
-409.848 7.11264 0
-408.159 7.09541 0
-406.474 7.07528 0
-404.785 7.0594 0
-403.099 7.03401 0
-401.415 7.01106 0
-399.728 6.97599 0
-398.039 6.95033 0
-396.353 6.92362 0
-394.663 6.89262 0
-392.98 6.8508 0
-391.289 6.81298 0
-389.603 6.77094 0
-387.916 6.73093 0
-386.23 6.68843 0
-384.541 6.64138 0
-382.853 6.5795 0
-381.171 6.53153 0
-379.49 6.46551 0
-377.803 6.4069 0
-376.124 6.34775 0
-374.437 6.28769 0
-372.754 6.22832 0
-371.064 6.17056 0
-369.383 6.0989 0
-367.702 6.02907 0
-366.022 5.96394 0
-364.327 5.88456 0
-362.645 5.81973 0
-360.961 5.7399 0
-359.28 5.65681 0
-357.594 5.57811 0
-355.911 5.50393 0
-354.232 5.41868 0
-352.547 5.33992 0
-350.86 5.25118 0
-349.187 5.17056 0
-347.508 5.08201 0
-345.831 4.99158 0
-344.147 4.89962 0
-342.469 4.80785 0
-340.792 4.71801 0
-339.11 4.61918 0
-337.433 4.52837 0
-335.759 4.43193 0
-334.082 4.33202 0
-332.402 4.2319 0
-330.728 4.13781 0
-329.047 4.04713 0
-327.372 3.93449 0
-325.687 3.83167 0
-324.012 3.73045 0
-322.334 3.62573 0
-320.654 3.5144 0
-318.974 3.40652 0
-317.298 3.29934 0
-315.625 3.19315 0
-313.951 3.09188 0
-312.275 2.98594 0
-310.597 2.86226 0
-308.918 2.7571 0
-307.24 2.64952 0
-305.569 2.52881 0
-303.895 2.4215 0
-302.216 2.30072 0
-300.538 2.18756 0
-298.86 2.07674 0
-297.18 1.97131 0
-295.513 1.85394 0
-293.832 1.73598 0
-292.158 1.61674 0
-290.485 1.5091 0
-288.813 1.39056 0
-287.138 1.27024 0
-285.467 1.15199 0
-283.799 1.03185 0
-282.126 0.915928 0
-280.453 0.792961 0
-278.779 0.679599 0
-277.107 0.568555 0
-275.431 0.440761 0
-273.762 0.323534 0
-272.091 0.20798 0
-270.422 0.0961012 0
-268.745 -0.0206455 0
-267.072 -0.144506 0
-265.398 -0.264144 0
-263.726 -0.381327 0
-262.053 -0.503391 0
-260.383 -0.608917 0
-258.705 -0.734185 0
-257.032 -0.854738 0
-255.357 -0.968804 0
-253.687 -1.09412 0
-252.011 -1.20295 0
-250.346 -1.32121 0
-248.672 -1.43585 0
-247.003 -1.55363 0
-245.332 -1.66514 0
-243.657 -1.78245 0
-241.979 -1.89469 0
-240.313 -2.01491 0
-238.645 -2.12721 0
-236.966 -2.23715 0
-235.292 -2.35006 0
-233.619 -2.46505 0
-231.952 -2.58369 0
-230.284 -2.70161 0
-228.613 -2.81061 0
-226.943 -2.91872 0
-225.273 -3.03527 0
-223.601 -3.14228 0
-221.929 -3.25456 0
-220.26 -3.37214 0
-218.587 -3.48013 0
-216.912 -3.57799 0
-215.253 -3.68838 0
-213.579 -3.79516 0
-211.911 -3.90953 0
-210.234 -4.01902 0
-208.57 -4.11757 0
-206.891 -4.21812 0
-205.219 -4.32618 0
-203.55 -4.43682 0
-201.88 -4.53564 0
-200.208 -4.63979 0
-198.542 -4.73367 0
-196.872 -4.83064 0
-195.204 -4.93481 0
-193.538 -5.03253 0
-191.867 -5.13689 0
-190.195 -5.23458 0
-188.518 -5.33636 0
-186.853 -5.44074 0
-185.178 -5.53651 0
-183.509 -5.62734 0
-181.838 -5.72949 0
-180.161 -5.82338 0
-178.492 -5.91648 0
-176.819 -6.00213 0
-175.149 -6.10579 0
-173.485 -6.19418 0
-171.811 -6.28459 0
-170.142 -6.36623 0
-168.471 -6.44756 0
-166.802 -6.53687 0
-165.13 -6.62746 0
-163.456 -6.71444 0
-161.786 -6.79962 0
-160.118 -6.89279 0
-158.446 -6.97298 0
-156.781 -7.05409 0
-155.112 -7.14204 0
-153.439 -7.21981 0
-151.772 -7.30124 0
-150.102 -7.38834 0
-148.431 -7.46791 0
-146.757 -7.55243 0
-145.094 -7.62804 0
-143.428 -7.70875 0
-141.763 -7.78302 0
-140.092 -7.86101 0
-138.424 -7.93387 0
-136.753 -8.00435 0
-135.079 -8.07956 0
-133.41 -8.15367 0
-131.741 -8.22924 0
-130.07 -8.29918 0
-128.403 -8.35842 0
-126.737 -8.42043 0
-125.074 -8.49419 0
-123.407 -8.56265 0
-121.737 -8.62368 0
-120.068 -8.69928 0
-118.398 -8.76031 0
-116.733 -8.82208 0
-115.065 -8.87831 0
-113.396 -8.94329 0
-111.728 -9.00267 0
-110.06 -9.06629 0
-108.388 -9.12272 0
-106.724 -9.18534 0
-105.058 -9.24643 0
-103.392 -9.29466 0
-101.725 -9.34421 0
-100.055 -9.4004 0
-98.38 -9.45254 0
-96.7194 -9.50748 0
-95.0491 -9.55251 0
-93.3854 -9.6074 0
-91.7191 -9.6529 0
-90.0479 -9.69837 0
-88.3873 -9.75511 0
-86.7186 -9.80051 0
-85.0526 -9.84454 0
-83.3867 -9.89139 0
-81.722 -9.93845 0
-80.0527 -9.98155 0
-78.385 -10.0321 0
-76.7127 -10.0756 0
-75.0461 -10.1155 0
-73.3788 -10.1552 0
-71.7085 -10.1901 0
-70.0459 -10.2292 0
-68.38 -10.2647 0
-66.7102 -10.3005 0
-65.0394 -10.3396 0
-63.3777 -10.3733 0
-61.7063 -10.4039 0
-60.044 -10.4363 0
-58.3741 -10.4712 0
-56.7045 -10.506 0
-55.0313 -10.5391 0
-53.3624 -10.5625 0
-51.7022 -10.5849 0
-50.033 -10.6211 0
-48.3574 -10.6558 0
-46.6908 -10.6762 0
-45.0265 -10.7021 0
-43.3596 -10.7278 0
-41.6926 -10.7439 0
-40.0306 -10.7676 0
-38.3636 -10.788 0
-36.6965 -10.8012 0
-35.0295 -10.8292 0
-33.3608 -10.8437 0
-31.6963 -10.8653 0
-30.026 -10.8851 0
-28.3603 -10.9055 0
-26.6935 -10.9213 0
-25.0289 -10.93 0
-23.3618 -10.9338 0
-21.6879 -10.9481 0
-20.0194 -10.9518 0
-18.3561 -10.9714 0
-16.6869 -10.981 0
-15.0214 -10.9843 0
-13.3512 -10.9965 0
-11.683 -11.0022 0
-10.0134 -11.0137 0
-8.34474 -11.0175 0
-6.67941 -11.0212 0
-5.00698 -11.0237 0
-3.33976 -11.0285 0
-1.67348 -11.0277 0
0 -11.0329 0
-1113.64 369.284 0
-1113.35 348.213 0
-1113.14 327.428 0
-1112.89 306.876 0
-1112.59 286.588 0
-1112.24 266.617 0
-1111.86 247.001 0
-1111.44 227.805 0
-1111.01 209.066 0
-1110.54 190.802 0
-1110.06 173.042 0
-1109.55 155.811 0
-1109.02 139.115 0
-1108.47 122.967 0
-1107.9 107.374 0
-1107.32 92.3403 0
-1106.71 77.8585 0
-1106.09 63.9253 0
-1105.46 50.5353 0
-1104.81 37.6764 0
-1104.15 25.3395 0
-1103.49 13.5025 0
-1102.83 2.15499 0
-1102.18 -8.7216 0
-1101.51 -19.144 0
-1100.86 -29.1281 0
-1100.2 -38.6667 0
-1099.55 -47.7771 0
-1098.9 -56.4633 0
-1098.25 -64.739 0
-1097.61 -72.601 0
-1096.96 -80.0683 0
-1096.31 -87.1504 0
-1095.66 -93.8456 0
-1095.01 -100.163 0
-1094.35 -106.12 0
-1093.7 -111.717 0
-1093.03 -116.965 0
-1092.36 -121.869 0
-1091.68 -126.432 0
-1090.99 -130.674 0
-1090.29 -134.59 0
-1089.58 -138.203 0
-1088.86 -141.512 0
-1088.13 -144.53 0
-1087.38 -147.267 0
-1086.62 -149.724 0
-1085.85 -151.911 0
-1085.05 -153.834 0
-1084.25 -155.511 0
-1083.43 -156.942 0
-1082.6 -158.147 0
-1081.74 -159.124 0
-1080.86 -159.885 0
-1079.96 -160.434 0
-1079.05 -160.783 0
-1078.12 -160.941 0
-1077.16 -160.914 0
-1076.18 -160.705 0
-1075.19 -160.32 0
-1074.17 -159.784 0
-1073.13 -159.082 0
-1072.08 -158.237 0
-1071 -157.246 0
-1069.91 -156.118 0
-1068.78 -154.87 0
-1067.64 -153.491 0
-1066.48 -152.007 0
-1065.29 -150.408 0
-1064.09 -148.698 0
-1062.87 -146.891 0
-1061.62 -144.99 0
-1060.36 -142.997 0
-1059.07 -140.927 0
-1057.77 -138.784 0
-1056.44 -136.57 0
-1055.09 -134.282 0
-1053.73 -131.93 0
-1052.35 -129.529 0
-1050.95 -127.066 0
-1049.54 -124.559 0
-1048.09 -122.011 0
-1046.64 -119.421 0
-1045.16 -116.794 0
-1043.67 -114.13 0
-1042.17 -111.441 0
-1040.65 -108.723 0
-1039.11 -105.977 0
-1037.56 -103.225 0
-1035.99 -100.459 0
-1034.4 -97.682 0
-1032.8 -94.8919 0
-1031.19 -92.0924 0
-1029.56 -89.2931 0
-1027.93 -86.4971 0
-1026.27 -83.6975 0
-1024.61 -80.8986 0
-1022.93 -78.1094 0
-1021.24 -75.3292 0
-1019.54 -72.5574 0
-1017.84 -69.7921 0
-1016.12 -67.0415 0
-1014.4 -64.3134 0
-1012.66 -61.6093 0
-1010.9 -58.9197 0
-1009.14 -56.2567 0
-1007.38 -53.611 0
-1005.61 -50.9948 0
-1003.83 -48.3966 0
-1002.03 -45.8281 0
-1000.23 -43.2894 0
-998.42 -40.7874 0
-996.606 -38.3104 0
-994.787 -35.8645 0
-992.957 -33.4573 0
-991.13 -31.0736 0
-989.289 -28.7385 0
-987.448 -26.4308 0
-985.61 -24.1626 0
-983.758 -21.9325 0
-981.903 -19.7468 0
-980.039 -17.5902 0
-978.171 -15.4818 0
-976.304 -13.4038 0