<?xml version="1.0"?>
<VTKFile type="StructuredGrid"  version="0.1" byte_order="LittleEndian" compressor="vtkZLibDataCompressor">
  <StructuredGrid WholeExtent="0 700 0 30 0 0">
    <Piece Extent="0 700 0 30 0 0">
      <PointData Vectors="Velocity">
        <DataArray type="Float32" Name="Velocity" NumberOfComponents="3" format="ascii">
-1079.69 113.012 0
-1080.06 102.376 0
-1080.48 91.8714 0
-1080.92 81.5747 0
-1081.38 71.5362 0
-1081.88 61.8071 0
-1082.44 52.467 0
-1083.02 43.5963 0
-1083.63 35.2151 0
-1084.23 27.354 0
-1084.81 20.0238 0
-1085.37 13.2593 0
-1085.89 7.08251 0
-1086.33 1.47186 0
-1086.62 -3.64566 0
-1086.79 -8.46237 0
-1087.05 -12.9789 0
-1087.35 -17.1391 0
-1087.58 -20.9123 0
-1087.8 -24.3023 0
-1088 -27.3096 0
-1088.18 -29.9186 0
-1088.32 -32.1681 0
-1088.42 -34.0508 0
-1088.47 -35.6132 0
-1088.45 -36.8581 0
-1088.37 -37.8186 0
-1088.22 -38.5219 0
-1088 -38.9837 0
-1087.7 -39.2325 0
-1087.34 -39.278 0
-1086.91 -39.1348 0
-1086.41 -38.8317 0
-1085.83 -38.3737 0
-1085.2 -37.7866 0
-1084.49 -37.077 0
-1083.71 -36.2503 0
-1082.88 -35.3343 0
-1081.98 -34.3304 0
-1081.02 -33.251 0
-1080.01 -32.1092 0
-1078.94 -30.9088 0
-1077.82 -29.6687 0
-1076.65 -28.3847 0
-1075.42 -27.075 0
-1074.16 -25.7381 0
-1072.85 -24.3859 0
-1071.49 -23.0243 0
-1070.1 -21.658 0
-1068.66 -20.2939 0
-1067.19 -18.9342 0
-1065.69 -17.5848 0
-1064.15 -16.2467 0
-1062.58 -14.9299 0
-1060.99 -13.6385 0
-1059.37 -12.3711 0
-1057.72 -11.1282 0
-1056.05 -9.91491 0
-1054.36 -8.7348 0
-1052.65 -7.59353 0
-1050.92 -6.4857 0
-1049.17 -5.41534 0
-1047.41 -4.38334 0
-1045.63 -3.39651 0
-1043.83 -2.44681 0
-1042.03 -1.53947 0
-1040.22 -0.674982 0
-1038.4 0.144843 0
-1036.56 0.924677 0
-1034.72 1.65485 0
-1032.87 2.34284 0
-1031.02 2.98986 0
-1029.17 3.59083 0
-1027.31 4.14848 0
-1025.44 4.66172 0
-1023.58 5.13601 0
-1021.71 5.56305 0
-1019.84 5.95125 0
-1017.97 6.30099 0
-1016.1 6.60727 0
-1014.24 6.87294 0
-1012.38 7.10207 0
-1010.51 7.29213 0
-1008.65 7.44725 0
-1006.8 7.56305 0
-1004.95 7.64946 0
-1003.1 7.69943 0
-1001.26 7.72038 0
-999.421 7.70774 0
-997.591 7.66612 0
-995.767 7.59283 0
-993.948 7.49488 0
-992.134 7.36963 0
-990.326 7.21883 0
-988.525 7.04515 0
-986.734 6.84687 0
-984.948 6.62822 0
-983.169 6.39266 0
-981.397 6.13609 0
-979.633 5.86079 0
-977.875 5.56616 0
-976.128 5.2601 0
-974.388 4.93928 0
-972.656 4.60813 0
-970.931 4.26548 0
-969.211 3.91121 0
-967.499 3.54865 0
-965.793 3.17908 0
-964.094 2.80227 0
-962.406 2.41869 0
-960.726 2.03407 0
-959.05 1.64404 0
-957.381 1.2504 0
-955.719 0.854466 0
-954.064 0.461219 0
-952.414 0.0676757 0
-950.768 -0.325774 0
-949.129 -0.716564 0
-947.497 -1.1059 0
-945.87 -1.49028 0
-944.249 -1.86995 0
-942.631 -2.24271 0
-941.019 -2.60975 0
-939.411 -2.97247 0
-937.809 -3.3261 0
-936.209 -3.66892 0
-934.613 -4.008 0
-933.021 -4.33624 0
-931.432 -4.65706 0
-929.848 -4.96845 0
-928.264 -5.26856 0
-926.687 -5.557 0
-925.106 -5.83701 0
-923.529 -6.10383 0
-921.954 -6.36165 0
-920.384 -6.60795 0
-918.815 -6.84269 0
-917.247 -7.06648 0
-915.675 -7.27833 0
-914.11 -7.47805 0
-912.543 -7.66669 0
-910.979 -7.84354 0
-909.414 -8.00957 0
-907.85 -8.16042 0
-906.284 -8.30324 0
-904.719 -8.43265 0
-903.156 -8.55053 0
-901.589 -8.65712 0
-900.023 -8.7511 0
-898.457 -8.83835 0
-896.889 -8.91138 0
-895.322 -8.9763 0
-893.751 -9.0297 0
-892.181 -9.07751 0
-890.611 -9.10725 0
-889.039 -9.1329 0
-887.468 -9.14315 0
-885.892 -9.14906 0
-884.316 -9.14656 0
-882.737 -9.13129 0
-881.156 -9.11318 0
-879.577 -9.08344 0
-877.995 -9.04751 0
-876.409 -9.00389 0
-874.821 -8.95447 0
-873.233 -8.89625 0
-871.643 -8.83238 0
-870.048 -8.76456 0
-868.456 -8.68941 0
-866.862 -8.60965 0
-865.265 -8.52217 0
-863.663 -8.435 0
-862.06 -8.33588 0
-860.458 -8.2379 0
-858.854 -8.13695 0
-857.243 -8.02921 0
-855.633 -7.92204 0
-854.024 -7.80969 0
-852.41 -7.69474 0
-850.796 -7.57885 0
-849.179 -7.45833 0
-847.56 -7.33715 0
-845.941 -7.21777 0
-844.319 -7.09425 0
-842.695 -6.96963 0
-841.068 -6.84733 0
-839.443 -6.72504 0
-837.812 -6.60148 0
-836.184 -6.47851 0
-834.555 -6.35416 0
-832.92 -6.23479 0
-831.285 -6.11225 0
-829.652 -5.99181 0
-828.014 -5.86936 0
-826.374 -5.75238 0
-824.736 -5.63702 0
-823.093 -5.52226 0
-821.455 -5.41217 0
-819.812 -5.29949 0
-818.167 -5.18962 0
-816.523 -5.08519 0
-814.878 -4.98254 0
-813.231 -4.88056 0
-811.582 -4.78161 0
-809.934 -4.68498 0
-808.286 -4.5916 0
-806.637 -4.50217 0
-804.988 -4.41661 0
-803.335 -4.33226 0
-801.687 -4.25351 0
-800.037 -4.17819 0
-798.387 -4.10116 0
-796.734 -4.03038 0
-795.08 -3.96069 0
-793.429 -3.89926 0
-791.775 -3.83817 0
-790.124 -3.77997 0
-788.471 -3.72522 0
-786.819 -3.67531 0
-785.167 -3.62746 0
-783.513 -3.58652 0
-781.86 -3.54431 0
-780.208 -3.50695 0
-778.554 -3.47245 0
-776.9 -3.44099 0
-775.249 -3.41506 0
-773.597 -3.38863 0
-771.943 -3.3698 0
-770.29 -3.34869 0
-768.641 -3.33231 0
-766.987 -3.32133 0
-765.338 -3.31233 0
-763.686 -3.30505 0
-762.034 -3.29928 0
-760.386 -3.2994 0
-758.734 -3.30229 0
-757.086 -3.30309 0
-755.439 -3.30838 0
-753.791 -3.31595 0
-752.143 -3.32833 0
-750.496 -3.34033 0
-748.849 -3.35524 0
-747.202 -3.37441 0
-745.553 -3.38731 0
-743.907 -3.40945 0
-742.263 -3.43365 0
-740.619 -3.45901 0
-738.979 -3.4858 0
-737.334 -3.51204 0
-735.693 -3.54128 0
-734.052 -3.56982 0
-732.411 -3.60095 0
-730.77 -3.63285 0
-729.126 -3.6665 0
-727.487 -3.70434 0
-725.848 -3.74155 0
-724.207 -3.77632 0
-722.571 -3.81135 0
-720.932 -3.84913 0
-719.296 -3.88595 0
-717.662 -3.92356 0
-716.025 -3.96627 0
-714.388 -4.00383 0
-712.752 -4.04871 0
-711.12 -4.08727 0
-709.484 -4.12716 0
-707.85 -4.16582 0
-706.214 -4.20613 0
-704.582 -4.24787 0
-702.951 -4.28846 0
-701.319 -4.32741 0
-699.688 -4.36834 0
-698.055 -4.41023 0
-696.425 -4.45029 0
-694.795 -4.48426 0
-693.166 -4.52438 0
-691.533 -4.56507 0
-689.905 -4.60274 0
-688.276 -4.64142 0
-686.644 -4.67533 0
-685.017 -4.7122 0
-683.389 -4.74531 0
-681.762 -4.78177 0
-680.136 -4.81475 0
-678.506 -4.84648 0
-676.877 -4.87714 0
-675.252 -4.9102 0
-673.622 -4.93777 0
-671.996 -4.96864 0
-670.369 -4.99623 0
-668.74 -5.02787 0
-667.11 -5.05522 0
-665.484 -5.0832 0
-663.857 -5.10551 0
-662.233 -5.12578 0
-660.607 -5.15127 0
-658.979 -5.17116 0
-657.355 -5.19671 0
-655.729 -5.21535 0
-654.102 -5.23092 0
-652.478 -5.24854 0
-650.852 -5.26484 0
-649.228 -5.28127 0
-647.599 -5.29453 0
-645.975 -5.30595 0
-644.349 -5.31777 0
-642.722 -5.32895 0
-641.097 -5.33552 0
-639.473 -5.34831 0
-637.85 -5.35699 0
-636.221 -5.36297 0
-634.592 -5.37355 0
-632.967 -5.37912 0
-631.345 -5.38158 0
-629.718 -5.3893 0
-628.093 -5.39069 0
-626.464 -5.39437 0
-624.836 -5.39425 0
-623.204 -5.39383 0
-621.578 -5.39606 0
-619.953 -5.39365 0
-618.329 -5.38726 0
-616.699 -5.38928 0
-615.07 -5.38163 0
-613.446 -5.3808 0
-611.816 -5.3749 0
-610.185 -5.36891 0
-608.558 -5.36667 0
-606.933 -5.36264 0
-605.3 -5.35229 0
-603.673 -5.34488 0
-602.042 -5.34058 0
-600.412 -5.32903 0
-598.785 -5.32068 0
-597.154 -5.31289 0
-595.523 -5.30116 0
-593.896 -5.291 0
-592.263 -5.27834 0
-590.636 -5.26707 0
-589.005 -5.25689 0
-587.377 -5.2436 0
-585.746 -5.23523 0
-584.114 -5.22695 0
-582.485 -5.2145 0
-580.858 -5.19928 0
-579.223 -5.18495 0
-577.589 -5.17167 0
-575.96 -5.15793 0
-574.33 -5.1461 0
-572.697 -5.13692 0
-571.067 -5.12144 0
-569.434 -5.11133 0
-567.806 -5.09782 0
-566.17 -5.0854 0
-564.537 -5.07694 0
-562.905 -5.05995 0
-561.273 -5.04851 0
-559.64 -5.03534 0
-558.009 -5.02041 0
-556.375 -5.00833 0
-554.748 -4.99443 0
-553.11 -4.98568 0
-551.478 -4.96969 0
-549.845 -4.9595 0
-548.214 -4.9498 0
-546.58 -4.9408 0
-544.951 -4.92298 0
-543.316 -4.91308 0
-541.681 -4.9037 0
-540.049 -4.89275 0
-538.42 -4.88286 0
-536.79 -4.86655 0
-535.152 -4.8559 0
-533.517 -4.84401 0
-531.884 -4.83455 0
-530.248 -4.82925 0
-528.614 -4.8216 0
-526.98 -4.81051 0
-525.348 -4.80196 0
-523.716 -4.79926 0
-522.081 -4.79057 0
-520.447 -4.77854 0
-518.816 -4.76982 0
-517.176 -4.76795 0
-515.536 -4.76119 0
-513.902 -4.75554 0
-512.273 -4.74849 0
-510.635 -4.74472 0
-509.003 -4.73674 0
-507.372 -4.73236 0
-505.739 -4.7234 0
-504.103 -4.71764 0
-502.472 -4.71907 0
-500.835 -4.71176 0
-499.206 -4.70949 0
-497.57 -4.70697 0
-495.937 -4.7037 0
-494.307 -4.70592 0
-492.672 -4.69715 0
-491.038 -4.69694 0
-489.401 -4.69725 0
-487.768 -4.69043 0
-486.129 -4.69654 0
-484.494 -4.69603 0
-482.867 -4.69218 0
-481.236 -4.69407 0
-479.606 -4.6922 0
-477.971 -4.68758 0
-476.336 -4.69037 0
-474.702 -4.69622 0
-473.066 -4.6983 0
-471.429 -4.69254 0
-469.798 -4.69529 0
-468.167 -4.69134 0
-466.531 -4.70114 0
-464.897 -4.69879 0
-463.266 -4.70375 0
-461.633 -4.70591 0
-459.998 -4.71033 0
-458.364 -4.71259 0
-456.732 -4.71886 0
-455.1 -4.71895 0
-453.465 -4.71636 0
-451.833 -4.72003 0
-450.201 -4.72307 0
-448.566 -4.727 0
-446.929 -4.73053 0
-445.298 -4.73248 0
-443.667 -4.73933 0
-442.031 -4.74494 0
-440.401 -4.74604 0
-438.77 -4.75338 0
-437.141 -4.75678 0
-435.51 -4.76514 0
-433.873 -4.76725 0
-432.242 -4.77134 0
-430.61 -4.77607 0
-428.979 -4.77518 0
-427.346 -4.78296 0
-425.715 -4.78752 0
-424.085 -4.78616 0
-422.456 -4.79166 0
-420.823 -4.79716 0
-419.19 -4.80245 0
-417.556 -4.80833 0
-415.918 -4.81001 0
-414.29 -4.80787 0
-412.66 -4.8186 0
-411.026 -4.8192 0
-409.392 -4.82039 0
-407.764 -4.82957 0
-406.128 -4.82531 0
-404.499 -4.8328 0
-402.867 -4.83997 0
-401.233 -4.84579 0
-399.6 -4.84813 0
-397.97 -4.85433 0
-396.346 -4.86016 0
-394.708 -4.86333 0
-393.074 -4.87105 0
-391.445 -4.87004 0
-389.812 -4.8729 0
-388.181 -4.87608 0
-386.549 -4.87878 0
-384.922 -4.88157 0
-383.294 -4.8827 0
-381.656 -4.88997 0
-380.029 -4.89059 0
-378.399 -4.89416 0
-376.766 -4.89881 0
-375.13 -4.89525 0
-373.501 -4.89894 0
-371.871 -4.90137 0
-370.24 -4.90429 0
-368.612 -4.90813 0
-366.978 -4.90581 0
-365.352 -4.9082 0
-363.723 -4.90782 0
-362.089 -4.90721 0
-360.455 -4.90472 0
-358.825 -4.91297 0
-357.193 -4.9215 0
-355.563 -4.91986 0
-353.936 -4.92056 0
-352.296 -4.92059 0
-350.662 -4.92423 0
-349.032 -4.92526 0
-347.409 -4.92599 0
-345.777 -4.92404 0
-344.146 -4.92988 0
-342.511 -4.93275 0
-340.879 -4.93472 0
-339.252 -4.92993 0
-337.621 -4.93399 0
-335.991 -4.93288 0
-334.36 -4.93123 0
-332.726 -4.9303 0
-331.098 -4.9337 0
-329.468 -4.93302 0
-327.842 -4.92735 0
-326.209 -4.92559 0
-324.577 -4.92925 0
-322.94 -4.93727 0
-321.314 -4.93007 0
-319.682 -4.92698 0
-318.054 -4.93211 0
-316.421 -4.93293 0
-314.792 -4.93546 0
-313.158 -4.93447 0
-311.523 -4.93058 0
-309.894 -4.93352 0
-308.259 -4.93057 0
-306.628 -4.92346 0
-304.995 -4.92729 0
-303.363 -4.92373 0
-301.73 -4.91735 0
-300.103 -4.92096 0
-298.471 -4.91977 0
-296.841 -4.92588 0
-295.214 -4.91912 0
-293.585 -4.92207 0
-291.952 -4.91913 0
-290.322 -4.91472 0
-288.695 -4.91339 0
-287.065 -4.91451 0
-285.429 -4.91523 0
-283.793 -4.91618 0
-282.163 -4.90897 0
-280.533 -4.90414 0
-278.905 -4.90891 0
-277.277 -4.90509 0
-275.64 -4.90506 0
-274.006 -4.90924 0
-272.379 -4.90747 0
-270.751 -4.91015 0
-269.12 -4.89647 0
-267.488 -4.89717 0
-265.854 -4.89794 0
-264.222 -4.89657 0
-262.589 -4.89309 0
-260.956 -4.89139 0
-259.324 -4.88742 0
-257.691 -4.89028 0
-256.062 -4.88942 0
-254.432 -4.88409 0
-252.801 -4.87811 0
-251.166 -4.87535 0
-249.537 -4.87784 0
-247.906 -4.88072 0
-246.278 -4.87587 0
-244.648 -4.87309 0
-243.018 -4.88003 0
-241.389 -4.87446 0
-239.755 -4.87162 0
-238.123 -4.87127 0
-236.492 -4.86871 0
-234.858 -4.86731 0
-233.224 -4.86296 0
-231.592 -4.86523 0
-229.965 -4.86748 0
-228.332 -4.8617 0
-226.704 -4.85953 0
-225.069 -4.86038 0
-223.438 -4.86026 0
-221.804 -4.86108 0
-220.167 -4.86331 0
-218.536 -4.86472 0
-216.905 -4.85761 0
-215.27 -4.86008 0
-213.643 -4.86026 0
-212.014 -4.85725 0
-210.389 -4.85047 0
-208.755 -4.8515 0
-207.117 -4.85044 0
-205.482 -4.84796 0
-203.853 -4.84764 0
-202.219 -4.84758 0
-200.588 -4.84827 0
-198.956 -4.84915 0
-197.327 -4.84915 0
-195.696 -4.84251 0
-194.062 -4.84184 0
-192.436 -4.84387 0
-190.807 -4.83783 0
-189.18 -4.84363 0
-187.547 -4.83987 0
-185.911 -4.83681 0
-184.28 -4.83796 0
-182.645 -4.83287 0
-181.018 -4.83432 0
-179.381 -4.84096 0
-177.75 -4.83795 0
-176.12 -4.84181 0
-174.49 -4.83769 0
-172.854 -4.83901 0
-171.229 -4.8364 0
-169.601 -4.83916 0
-167.971 -4.84161 0
-166.337 -4.84072 0
-164.704 -4.83819 0
-163.076 -4.84333 0
-161.449 -4.84164 0
-159.814 -4.8373 0
-158.179 -4.84354 0
-156.554 -4.84291 0
-154.918 -4.83674 0
-153.288 -4.83766 0
-151.659 -4.83906 0
-150.033 -4.83885 0
-148.399 -4.83691 0
-146.763 -4.83756 0
-145.141 -4.8384 0
-143.507 -4.83915 0
-141.874 -4.84154 0
-140.244 -4.83333 0
-138.613 -4.83887 0
-136.985 -4.83641 0
-135.355 -4.83893 0
-133.718 -4.83728 0
-132.088 -4.83674 0
-130.461 -4.83761 0
-128.828 -4.83759 0
-127.194 -4.83201 0
-125.56 -4.83684 0
-123.936 -4.83536 0
-122.3 -4.83749 0
-120.67 -4.84267 0
-119.043 -4.83808 0
-117.416 -4.84087 0
-115.78 -4.83846 0
-114.149 -4.84888 0
-112.518 -4.84445 0
-110.884 -4.83863 0
-109.253 -4.84403 0
-107.625 -4.84328 0
-105.99 -4.83408 0
-104.361 -4.83691 0
-102.729 -4.84127 0
-101.1 -4.83993 0
-99.4701 -4.84123 0
-97.8352 -4.84251 0
-96.2049 -4.84327 0
-94.5676 -4.84324 0
-92.9318 -4.84588 0
-91.3089 -4.84941 0
-89.6797 -4.84365 0
-88.0511 -4.8445 0
-86.4197 -4.84907 0
-84.7885 -4.84535 0
-83.158 -4.85717 0
-81.5314 -4.84894 0
-79.9003 -4.84677 0
-78.2695 -4.84976 0
-76.6421 -4.84646 0
-75.0119 -4.84784 0
-73.3787 -4.84457 0
-71.7485 -4.84825 0
-70.1206 -4.84805 0
-68.4883 -4.8483 0
-66.8563 -4.84507 0
-65.225 -4.85075 0
-63.5915 -4.84829 0
-61.9619 -4.84724 0
-60.3334 -4.85018 0
-58.7043 -4.85521 0
-57.0745 -4.84777 0
-55.4435 -4.85034 0
-53.8082 -4.85004 0
-52.1805 -4.84786 0
-50.5451 -4.84959 0
-48.9177 -4.84814 0
-47.2882 -4.8498 0
-45.6587 -4.85033 0
-44.0265 -4.85111 0
-42.393 -4.85634 0
-40.7628 -4.86147 0
-39.1314 -4.85628 0
-37.5012 -4.85554 0
-35.873 -4.85662 0
-34.2429 -4.85407 0
-32.6119 -4.85316 0
-30.9806 -4.85784 0
-29.3503 -4.85464 0
-27.7223 -4.8526 0
-26.0888 -4.85258 0
-24.4575 -4.85587 0
-22.8249 -4.85123 0
-21.1927 -4.8549 0
-19.5655 -4.856 0
-17.9404 -4.85739 0
-16.3121 -4.85443 0
-14.6797 -4.86123 0
-13.0518 -4.8602 0
-11.419 -4.85593 0
-9.78519 -4.85544 0
-8.15315 -4.85487 0
-6.51547 -4.85927 0
-4.88865 -4.86115 0
-3.2629 -4.86022 0
-1.62635 -4.86089 0
0 -4.85914 0
-1090.32 113.412 0
-1090.59 102.725 0
-1090.83 92.1933 0
-1091.07 81.8735 0
-1091.28 71.8081 0
-1091.46 62.0393 0
-1091.59 52.6544 0
-1091.69 43.7342 0
-1091.78 35.3184 0
-1091.83 27.4278 0
-1091.85 20.0873 0
-1091.82 13.323 0
-1091.73 7.14715 0
-1091.62 1.56278 0
-1091.55 -3.5542 0
-1091.54 -8.37401 0
-1091.46 -12.9051 0
-1091.33 -17.0645 0
-1091.2 -20.8423 0
-1091.05 -24.2327 0
-1090.87 -27.2328 0
-1090.67 -29.8329 0
-1090.45 -32.0619 0
-1090.2 -33.9192 0
-1089.92 -35.4431 0
-1089.6 -36.6462 0
-1089.24 -37.5569 0
-1088.83 -38.2064 0
-1088.38 -38.6139 0
-1087.87 -38.8029 0
-1087.31 -38.7889 0
-1086.71 -38.5866 0
-1086.04 -38.2216 0
-1085.33 -37.7072 0
-1084.56 -37.0561 0
-1083.73 -36.2869 0
-1082.86 -35.4058 0
-1081.93 -34.4334 0
-1080.95 -33.3725 0
-1079.93 -32.2383 0
-1078.85 -31.0447 0
-1077.73 -29.7957 0
-1076.57 -28.5043 0
-1075.36 -27.1775 0
-1074.12 -25.8203 0
-1072.83 -24.4449 0
-1071.5 -23.051 0
-1070.14 -21.6505 0
-1068.75 -20.249 0
-1067.32 -18.8469 0
-1065.85 -17.455 0
-1064.36 -16.0742 0
-1062.84 -14.7097 0
-1061.3 -13.3653 0
-1059.72 -12.0454 0
-1058.13 -10.7542 0
-1056.51 -9.48872 0
-1054.87 -8.25661 0
-1053.22 -7.05567 0
-1051.54 -5.89529 0
-1049.84 -4.77017 0
-1048.14 -3.68589 0
-1046.41 -2.63782 0
-1044.67 -1.63738 0
-1042.92 -0.677002 0
-1041.16 0.240192 0
-1039.39 1.11437 0
-1037.61 1.94599 0
-1035.82 2.73015 0
-1034.03 3.47032 0
-1032.22 4.16194 0
-1030.41 4.81148 0
-1028.6 5.41727 0
-1026.78 5.98076 0
-1024.96 6.49498 0
-1023.14 6.96891 0
-1021.31 7.3998 0
-1019.48 7.78903 0
-1017.65 8.13627 0
-1015.83 8.43988 0
-1014 8.70518 0
-1012.17 8.93212 0
-1010.35 9.12135 0
-1008.52 9.27302 0
-1006.7 9.38912 0
-1004.88 9.46735 0
-1003.07 9.51358 0
-1001.26 9.52831 0
-999.454 9.51131 0
-997.653 9.46516 0
-995.853 9.38766 0
-994.061 9.28433 0
-992.273 9.15159 0
-990.491 8.9962 0
-988.714 8.81631 0
-986.942 8.61181 0
-985.177 8.38865 0
-983.416 8.14307 0
-981.663 7.87956 0
-979.916 7.59672 0
-978.175 7.29784 0
-976.441 6.98311 0
-974.713 6.65766 0
-972.99 6.31809 0
-971.274 5.96866 0
-969.565 5.60932 0
-967.862 5.23898 0
-966.165 4.86168 0
-964.475 4.47849 0
-962.79 4.08955 0
-961.11 3.69834 0
-959.438 3.30303 0
-957.772 2.90261 0
-956.109 2.50005 0
-954.453 2.10141 0
-952.802 1.70171 0
-951.156 1.30366 0
-949.516 0.906893 0
-947.88 0.513756 0
-946.25 0.123549 0
-944.623 -0.259052 0
-943 -0.63829 0
-941.382 -1.00968 0
-939.767 -1.37535 0
-938.154 -1.73192 0
-936.547 -2.08093 0
-934.944 -2.42169 0
-933.343 -2.75344 0
-931.744 -3.07619 0
-930.149 -3.39059 0
-928.556 -3.69364 0
-926.966 -3.98569 0
-925.379 -4.26756 0
-923.791 -4.53573 0
-922.207 -4.79516 0
-920.624 -5.04374 0
-919.042 -5.27964 0
-917.462 -5.50316 0
-915.881 -5.71731 0
-914.302 -5.91826 0
-912.723 -6.10716 0
-911.146 -6.28403 0
-909.571 -6.44969 0
-907.994 -6.60239 0
-906.418 -6.74303 0
-904.842 -6.87493 0
-903.266 -6.99231 0
-901.689 -7.09664 0
-900.111 -7.19168 0
-898.536 -7.2773 0
-896.957 -7.35256 0
-895.379 -7.41431 0
-893.8 -7.46817 0
-892.22 -7.51122 0
-890.639 -7.54258 0
-889.057 -7.56592 0
-887.473 -7.57784 0
-885.891 -7.58053 0
-884.306 -7.5761 0
-882.72 -7.56149 0
-881.133 -7.54013 0
-879.543 -7.50958 0
-877.953 -7.47229 0
-876.362 -7.42784 0
-874.769 -7.37422 0
-873.173 -7.31563 0
-871.578 -7.24995 0
-869.98 -7.17989 0
-868.381 -7.10403 0
-866.779 -7.02148 0
-865.177 -6.93228 0
-863.57 -6.84128 0
-861.963 -6.7443 0
-860.358 -6.64615 0
-858.749 -6.54015 0
-857.138 -6.43146 0
-855.526 -6.3216 0
-853.91 -6.20838 0
-852.296 -6.09116 0
-850.678 -5.97329 0
-849.06 -5.85367 0
-847.442 -5.72947 0
-845.82 -5.60895 0
-844.196 -5.48273 0
-842.571 -5.35776 0
-840.946 -5.23445 0
-839.318 -5.10834 0
-837.69 -4.98363 0
-836.061 -4.86172 0
-834.43 -4.73514 0
-832.799 -4.61141 0
-831.166 -4.48986 0
-829.532 -4.36795 0
-827.896 -4.24659 0
-826.26 -4.12907 0
-824.622 -4.0108 0
-822.984 -3.8961 0
-821.343 -3.78141 0
-819.701 -3.67025 0
-818.06 -3.56077 0
-816.419 -3.45504 0
-814.777 -3.34906 0
-813.134 -3.24824 0
-811.488 -3.14711 0
-809.843 -3.05096 0
-808.198 -2.95719 0
-806.551 -2.86624 0
-804.905 -2.78144 0
-803.256 -2.6969 0
-801.61 -2.61593 0
-799.962 -2.53986 0
-798.313 -2.46333 0
-796.665 -2.39216 0
-795.017 -2.32406 0
-793.367 -2.25937 0
-791.717 -2.19859 0
-790.068 -2.14076 0
-788.419 -2.08537 0
-786.769 -2.03662 0
-785.12 -1.99037 0
-783.47 -1.94651 0
-781.823 -1.90479 0
-780.171 -1.86689 0
-778.522 -1.83415 0
-776.872 -1.8023 0
-775.221 -1.77546 0
-773.574 -1.75101 0
-771.923 -1.72945 0
-770.272 -1.71133 0
-768.624 -1.69532 0
-766.975 -1.68158 0
-765.328 -1.67413 0
-763.678 -1.66534 0
-762.031 -1.66321 0
-760.385 -1.66231 0
-758.738 -1.66566 0
-757.09 -1.66934 0
-755.444 -1.67319 0
-753.799 -1.68128 0
-752.154 -1.69256 0
-750.508 -1.70505 0
-748.862 -1.72021 0
-747.216 -1.73854 0
-745.573 -1.75649 0
-743.932 -1.77687 0
-742.287 -1.80355 0
-740.647 -1.82949 0
-739.004 -1.85349 0
-737.362 -1.88423 0
-735.721 -1.90965 0
-734.082 -1.94083 0
-732.443 -1.97346 0
-730.802 -2.00242 0
-729.161 -2.03817 0
-727.521 -2.07666 0
-725.883 -2.11097 0
-724.245 -2.15077 0
-722.606 -2.18652 0
-720.97 -2.22376 0
-719.333 -2.26311 0
-717.699 -2.30136 0
-716.063 -2.34211 0
-714.429 -2.38176 0
-712.796 -2.42497 0
-711.16 -2.46406 0
-709.526 -2.50576 0
-707.889 -2.54411 0
-706.256 -2.58604 0
-704.623 -2.62759 0
-702.99 -2.66924 0
-701.36 -2.70965 0
-699.729 -2.74876 0
-698.097 -2.7901 0
-696.464 -2.83004 0
-694.832 -2.86821 0
-693.204 -2.90647 0
-691.574 -2.94635 0
-689.942 -2.98551 0
-688.312 -3.02294 0
-686.681 -3.05889 0
-685.052 -3.09689 0
-683.425 -3.13061 0
-681.798 -3.16731 0
-680.166 -3.19646 0
-678.538 -3.23012 0
-676.909 -3.26023 0
-675.28 -3.2931 0
-673.649 -3.32382 0
-672.024 -3.35269 0
-670.394 -3.38095 0
-668.766 -3.4107 0
-667.137 -3.43961 0
-665.51 -3.46708 0
-663.883 -3.4891 0
-662.256 -3.51135 0
-660.629 -3.53657 0
-659.001 -3.56017 0
-657.376 -3.58048 0
-655.748 -3.60096 0
-654.12 -3.61887 0
-652.494 -3.63319 0
-650.867 -3.65073 0
-649.238 -3.66609 0
-647.614 -3.67811 0
-645.989 -3.69173 0
-644.36 -3.70365 0
-642.737 -3.71363 0
-641.109 -3.72237 0
-639.483 -3.73196 0
-637.854 -3.74292 0
-636.228 -3.75026 0
-634.599 -3.75879 0
-632.972 -3.76399 0
-631.346 -3.77074 0
-629.72 -3.77298 0
-628.091 -3.77597 0
-626.461 -3.77816 0
-624.836 -3.78036 0
-623.208 -3.77916 0
-621.579 -3.77906 0
-619.952 -3.77932 0
-618.326 -3.77492 0
-616.695 -3.77165 0
-615.068 -3.76817 0
-613.439 -3.76265 0
-611.81 -3.75733 0
-610.182 -3.75492 0
-608.554 -3.75 0
-606.924 -3.7431 0
-605.295 -3.73406 0
-603.665 -3.72817 0
-602.036 -3.7211 0
-600.404 -3.71393 0
-598.774 -3.70384 0
-597.145 -3.69275 0
-595.515 -3.68246 0
-593.883 -3.67069 0
-592.254 -3.6581 0
-590.625 -3.64821 0
-588.995 -3.64101 0
-587.365 -3.62706 0
-585.735 -3.61679 0
-584.106 -3.60626 0
-582.474 -3.59546 0
-580.844 -3.579 0
-579.214 -3.56551 0
-577.581 -3.55117 0
-575.947 -3.53877 0
-574.318 -3.52682 0
-572.689 -3.51691 0
-571.054 -3.50359 0
-569.424 -3.48871 0
-567.79 -3.4766 0
-566.158 -3.46223 0
-564.526 -3.45289 0
-562.894 -3.44213 0
-561.262 -3.42702 0
-559.629 -3.4158 0
-557.997 -3.40097 0
-556.365 -3.38516 0
-554.733 -3.37661 0
-553.104 -3.36197 0
-551.47 -3.35003 0
-549.836 -3.34036 0
-548.205 -3.32969 0
-546.568 -3.31788 0
-544.938 -3.30337 0
-543.302 -3.29104 0
-541.673 -3.28175 0
-540.039 -3.27147 0
-538.408 -3.26327 0
-536.776 -3.24718 0
-535.145 -3.23289 0
-533.508 -3.22263 0
-531.873 -3.21339 0
-530.241 -3.20643 0
-528.605 -3.19868 0
-526.974 -3.18789 0
-525.34 -3.18066 0
-523.706 -3.17552 0
-522.074 -3.16858 0
-520.439 -3.15876 0
-518.804 -3.15057 0
-517.173 -3.14314 0
-515.537 -3.13557 0
-513.902 -3.13326 0
-512.268 -3.126 0
-510.636 -3.12162 0
-509.001 -3.1156 0
-507.366 -3.10892 0
-505.734 -3.10279 0
-504.098 -3.09595 0
-502.466 -3.09499 0
-500.833 -3.09099 0
-499.2 -3.08747 0
-497.569 -3.08498 0
-495.935 -3.08354 0
-494.302 -3.08665 0
-492.67 -3.07634 0
-491.035 -3.07481 0
-489.398 -3.07183 0
-487.765 -3.07323 0
-486.135 -3.0712 0
-484.5 -3.07258 0
-482.865 -3.07222 0
-481.233 -3.07271 0
-479.6 -3.07149 0
-477.971 -3.06754 0
-476.334 -3.07055 0
-474.7 -3.07071 0
-473.066 -3.07209 0
-471.433 -3.07494 0
-469.8 -3.07384 0
-468.167 -3.07245 0
-466.532 -3.0739 0
-464.9 -3.07902 0
-463.268 -3.07901 0
-461.633 -3.08409 0
-460.002 -3.08497 0
-458.367 -3.09106 0
-456.734 -3.09666 0
-455.1 -3.09795 0
-453.469 -3.09634 0
-451.84 -3.09868 0
-450.203 -3.10188 0
-448.57 -3.10465 0
-446.934 -3.10861 0
-445.304 -3.11228 0
-443.669 -3.11733 0
-442.036 -3.12111 0
-440.408 -3.12733 0
-438.777 -3.13079 0
-437.145 -3.13821 0
-435.513 -3.14111 0
-433.878 -3.1444 0
-432.246 -3.15276 0
-430.617 -3.15349 0
-428.986 -3.15519 0
-427.353 -3.16364 0
-425.718 -3.16602 0
-424.085 -3.16769 0
-422.455 -3.17192 0
-420.822 -3.17488 0
-419.189 -3.17844 0
-417.558 -3.18634 0
-415.923 -3.18781 0
-414.292 -3.19262 0
-412.659 -3.19509 0
-411.026 -3.19875 0
-409.399 -3.20096 0
-407.763 -3.20551 0
-406.133 -3.20944 0
-404.503 -3.21225 0
-402.87 -3.22069 0
-401.236 -3.22599 0
-399.605 -3.22622 0
-397.971 -3.23495 0
-396.343 -3.23882 0
-394.711 -3.24419 0
-393.078 -3.25263 0
-391.446 -3.25406 0
-389.816 -3.25246 0
-388.185 -3.25597 0
-386.556 -3.26219 0
-384.923 -3.26369 0
-383.297 -3.26402 0
-381.666 -3.26961 0
-380.034 -3.27061 0
-378.398 -3.27386 0
-376.768 -3.27779 0
-375.136 -3.27851 0
-373.505 -3.28265 0
-371.877 -3.28447 0
-370.247 -3.28823 0
-368.611 -3.28577 0
-366.982 -3.28731 0
-365.349 -3.29258 0
-363.719 -3.28965 0
-362.087 -3.2843 0
-360.46 -3.2919 0
-358.828 -3.29478 0
-357.197 -3.30235 0
-355.564 -3.30134 0
-353.93 -3.30265 0
-352.3 -3.30159 0
-350.666 -3.30563 0
-349.036 -3.30775 0
-347.406 -3.30893 0
-345.778 -3.30788 0
-344.149 -3.31 0
-342.514 -3.31139 0
-340.883 -3.31537 0
-339.252 -3.31195 0
-337.62 -3.31218 0
-335.99 -3.31469 0
-334.358 -3.31463 0
-332.725 -3.31601 0
-331.099 -3.31464 0
-329.466 -3.31114 0
-327.834 -3.3108 0
-326.201 -3.308 0
-324.572 -3.31084 0
-322.944 -3.31187 0
-321.311 -3.3082 0
-319.678 -3.30937 0
-318.052 -3.31558 0
-316.421 -3.31351 0
-314.789 -3.31595 0
-313.156 -3.31558 0
-311.523 -3.30959 0
-309.887 -3.30735 0
-308.258 -3.3081 0
-306.626 -3.30855 0
-304.997 -3.30515 0
-303.365 -3.30285 0
-301.737 -3.30172 0
-300.107 -3.30121 0
-298.474 -3.30214 0
-296.844 -3.30292 0
-295.211 -3.30101 0
-293.58 -3.30059 0
-291.951 -3.29853 0
-290.323 -3.3002 0
-288.694 -3.29465 0
-287.062 -3.29444 0
-285.427 -3.29066 0
-283.794 -3.29696 0
-282.162 -3.29319 0
-280.534 -3.29379 0
-278.905 -3.28799 0
-277.271 -3.28336 0
-275.64 -3.28396 0
-274.009 -3.28814 0
-272.377 -3.2881 0
-270.743 -3.2874 0
-269.113 -3.27988 0
-267.483 -3.28052 0
-265.85 -3.2744 0
-264.218 -3.27673 0
-262.591 -3.27653 0
-260.957 -3.27553 0
-259.325 -3.26991 0
-257.695 -3.27183 0
-256.062 -3.2693 0
-254.431 -3.26444 0
-252.8 -3.25735 0
-251.172 -3.25603 0
-249.539 -3.25819 0
-247.908 -3.25867 0
-246.276 -3.26006 0
-244.644 -3.25983 0
-243.013 -3.25715 0
-241.382 -3.2557 0
-239.749 -3.25008 0
-238.118 -3.25161 0
-236.488 -3.24752 0
-234.854 -3.24753 0
-233.223 -3.24598 0
-231.594 -3.24155 0
-229.962 -3.24596 0
-228.332 -3.24199 0
-226.7 -3.23642 0
-225.069 -3.23888 0
-223.435 -3.24074 0
-221.803 -3.23915 0
-220.173 -3.24488 0
-218.54 -3.24178 0
-216.907 -3.23877 0
-215.276 -3.23876 0
-213.64 -3.23809 0
-212.01 -3.23664 0
-210.381 -3.23429 0
-208.747 -3.23186 0
-207.117 -3.22777 0
-205.484 -3.22973 0
-203.854 -3.22997 0
-202.22 -3.23027 0
-200.585 -3.23096 0
-198.955 -3.22679 0
-197.324 -3.22828 0
-195.692 -3.22216 0
-194.066 -3.22285 0
-192.432 -3.2218 0
-190.806 -3.22278 0
-189.17 -3.22405 0
-187.54 -3.21806 0
-185.909 -3.21987 0
-184.278 -3.21574 0
-182.646 -3.21272 0
-181.018 -3.21641 0
-179.384 -3.21686 0
-177.752 -3.2193 0
-176.12 -3.2214 0
-174.489 -3.22242 0
-172.854 -3.21871 0
-171.225 -3.22028 0
-169.6 -3.21775 0
-167.97 -3.21733 0
-166.338 -3.21776 0
-164.704 -3.219 0
-163.074 -3.22324 0
-161.442 -3.22716 0
-159.808 -3.22 0
-158.181 -3.22243 0
-156.543 -3.22269 0
-154.915 -3.21607 0
-153.284 -3.22212 0
-151.656 -3.22137 0
-150.028 -3.21713 0
-148.397 -3.21852 0
-146.769 -3.21932 0
-145.139 -3.22015 0
-143.508 -3.21961 0
-141.873 -3.21902 0
-140.245 -3.22027 0
-138.611 -3.21845 0
-136.984 -3.22287 0
-135.353 -3.21792 0
-133.719 -3.21599 0
-132.09 -3.22213 0
-130.464 -3.22126 0
-128.826 -3.21712 0
-127.194 -3.21577 0
-125.565 -3.21809 0
-123.934 -3.21821 0
-122.303 -3.2192 0
-120.671 -3.22164 0
-119.038 -3.21804 0
-117.41 -3.22307 0
-115.783 -3.21823 0
-114.149 -3.22559 0
-112.517 -3.22314 0
-110.885 -3.21735 0
-109.256 -3.22625 0
-107.619 -3.22594 0
-105.99 -3.2164 0
-104.361 -3.2196 0
-102.732 -3.21991 0
-101.102 -3.22401 0
-99.4687 -3.22279 0
-97.8362 -3.22433 0
-96.2042 -3.2209 0
-94.573 -3.22405 0
-92.9452 -3.22844 0
-91.3115 -3.23227 0
-89.6803 -3.22643 0
-88.0506 -3.2305 0
-86.423 -3.22878 0
-84.7937 -3.22965 0
-83.1613 -3.23582 0
-81.5283 -3.23362 0
-79.9009 -3.22965 0
-78.269 -3.2314 0
-76.6361 -3.22759 0
-75.01 -3.22949 0
-73.3814 -3.22497 0
-71.7495 -3.23049 0
-70.1184 -3.22881 0
-68.4863 -3.22989 0
-66.857 -3.22713 0
-65.2217 -3.22835 0
-63.5916 -3.23202 0
-61.9629 -3.22937 0
-60.3325 -3.23281 0
-58.6999 -3.23395 0
-57.0667 -3.23014 0
-55.4354 -3.23034 0
-53.8051 -3.2286 0
-52.1782 -3.22774 0
-50.5503 -3.22986 0
-48.9177 -3.23094 0
-47.289 -3.23131 0
-45.6588 -3.23152 0
-44.0291 -3.23533 0
-42.3989 -3.23575 0
-40.7662 -3.23914 0
-39.1309 -3.23796 0
-37.5011 -3.23944 0
-35.8722 -3.23665 0
-34.2436 -3.23715 0
-32.6134 -3.23721 0
-30.9828 -3.23755 0
-29.3524 -3.23816 0
-27.7177 -3.2375 0
-26.0879 -3.23361 0
-24.455 -3.23863 0
-22.8265 -3.23313 0
-21.1953 -3.23569 0
-19.5672 -3.23837 0
-17.9409 -3.23925 0
-16.3089 -3.23644 0
-14.6787 -3.23816 0
-13.0493 -3.23787 0
-11.4183 -3.23747 0
-9.78772 -3.2378 0
-8.15178 -3.23514 0
-6.52463 -3.23878 0
-4.89444 -3.24327 0
-3.26207 -3.24121 0
-1.63338 -3.2418 0
0 -3.23808 0
-1101.22 114.161 0
-1101.09 103.255 0
-1101.11 92.7222 0
-1101.1 82.4145 0
-1101.01 72.3677 0
-1100.85 62.6293 0
-1100.6 53.2673 0
-1100.28 44.3446 0
-1099.9 35.9206 0
-1099.46 28.0311 0
-1098.97 20.6977 0
-1098.42 13.9429 0
-1097.84 7.76139 0
-1097.29 2.10727 0
-1096.8 -3.11948 0
-1096.36 -7.96786 0
-1095.93 -12.4722 0
-1095.46 -16.6191 0
-1094.95 -20.3947 0
-1094.41 -23.7757 0
-1093.85 -26.776 0
-1093.27 -29.372 0
-1092.68 -31.5917 0
-1092.07 -33.4455 0
-1091.46 -34.9531 0
-1090.83 -36.139 0
-1090.19 -37.0264 0
-1089.52 -37.6483 0
-1088.83 -38.0222 0
-1088.11 -38.1667 0
-1087.35 -38.1122 0
-1086.56 -37.8705 0
-1085.73 -37.46 0
-1084.87 -36.9008 0
-1083.96 -36.207 0
-1083.02 -35.3891 0
-1082.04 -34.4646 0
-1081.02 -33.4451 0
-1079.96 -32.3406 0
-1078.86 -31.165 0
-1077.73 -29.9258 0
-1076.56 -28.6376 0
-1075.35 -27.3047 0
-1074.11 -25.9393 0
-1072.83 -24.5473 0
-1071.52 -23.1333 0
-1070.18 -21.7054 0
-1068.81 -20.2753 0
-1067.41 -18.8386 0
-1065.98 -17.4085 0
-1064.53 -15.9866 0
-1063.05 -14.5789 0
-1061.55 -13.1904 0
-1060.02 -11.821 0
-1058.47 -10.4791 0
-1056.9 -9.16516 0
-1055.31 -7.88057 0
-1053.7 -6.62895 0
-1052.08 -5.41024 0
-1050.44 -4.23331 0
-1048.78 -3.0909 0
-1047.11 -1.99422 0
-1045.42 -0.936451 0
-1043.73 0.0812176 0
-1042.02 1.05089 0
-1040.29 1.97823 0
-1038.56 2.8616 0
-1036.83 3.70024 0
-1035.08 4.49417 0
-1033.33 5.23974 0
-1031.57 5.93747 0
-1029.8 6.59249 0
-1028.03 7.20136 0
-1026.26 7.7678 0
-1024.48 8.28653 0
-1022.69 8.76186 0
-1020.91 9.19316 0
-1019.12 9.58482 0
-1017.34 9.93134 0
-1015.55 10.2349 0
-1013.76 10.5008 0
-1011.97 10.7267 0
-1010.18 10.9153 0
-1008.39 11.065 0
-1006.6 11.1768 0
-1004.82 11.2537 0
-1003.04 11.2971 0
-1001.26 11.3085 0
-999.48 11.2887 0
-997.707 11.2366 0
-995.938 11.1546 0
-994.169 11.0469 0
-992.409 10.9109 0
-990.648 10.7503 0
-988.894 10.5648 0
-987.145 10.3564 0
-985.4 10.1245 0
-983.659 9.87609 0
-981.923 9.60664 0
-980.192 9.31786 0
-978.467 9.0145 0
-976.746 8.69374 0
-975.031 8.36267 0
-973.32 8.01809 0
-971.616 7.6614 0
-969.917 7.29599 0
-968.222 6.92154 0
-966.532 6.53893 0