<?xml version="1.0"?>
<VTKFile type="StructuredGrid"  version="0.1" byte_order="LittleEndian" compressor="vtkZLibDataCompressor">
  <StructuredGrid WholeExtent="0 700 0 30 0 0">
    <Piece Extent="0 700 0 30 0 0">
      <PointData Vectors="Velocity">
        <DataArray type="Float32" Name="Velocity" NumberOfComponents="3" format="ascii">
-1056.23 89.2647 0
-1056.69 79.8868 0
-1057.2 70.6399 0
-1057.74 61.6075 0
-1058.29 52.8392 0
-1058.89 44.4079 0
-1059.53 36.3987 0
-1060.19 28.8612 0
-1060.85 21.8249 0
-1061.49 15.3091 0
-1062.1 9.33534 0
-1062.66 3.92445 0
-1063.15 -0.911203 0
-1063.51 -5.23981 0
-1063.7 -9.23713 0
-1063.92 -13.0026 0
-1064.18 -16.4514 0
-1064.43 -19.5238 0
-1064.66 -22.2086 0
-1064.86 -24.5147 0
-1065.02 -26.455 0
-1065.14 -28.0418 0
-1065.2 -29.3035 0
-1065.19 -30.2645 0
-1065.12 -30.9507 0
-1064.97 -31.3898 0
-1064.74 -31.6065 0
-1064.43 -31.6242 0
-1064.05 -31.4623 0
-1063.58 -31.1426 0
-1063.04 -30.6796 0
-1062.43 -30.0928 0
-1061.74 -29.3959 0
-1060.99 -28.6015 0
-1060.17 -27.7244 0
-1059.28 -26.7767 0
-1058.33 -25.7697 0
-1057.32 -24.7148 0
-1056.25 -23.6191 0
-1055.13 -22.491 0
-1053.96 -21.3411 0
-1052.74 -20.1765 0
-1051.47 -19.0035 0
-1050.15 -17.8283 0
-1048.8 -16.6573 0
-1047.4 -15.4956 0
-1045.97 -14.3464 0
-1044.5 -13.2152 0
-1043 -12.1076 0
-1041.47 -11.0248 0
-1039.91 -9.96869 0
-1038.33 -8.94356 0
-1036.72 -7.95298 0
-1035.09 -6.99774 0
-1033.44 -6.07845 0
-1031.77 -5.19834 0
-1030.09 -4.35757 0
-1028.39 -3.55597 0
-1026.67 -2.79858 0
-1024.94 -2.08169 0
-1023.2 -1.40646 0
-1021.45 -0.774783 0
-1019.69 -0.185278 0
-1017.93 0.361313 0
-1016.16 0.865795 0
-1014.38 1.32943 0
-1012.6 1.75108 0
-1010.81 2.13392 0
-1009.02 2.47477 0
-1007.23 2.77737 0
-1005.44 3.04021 0
-1003.65 3.26579 0
-1001.87 3.45537 0
-1000.08 3.61125 0
-998.293 3.73042 0
-996.511 3.81745 0
-994.731 3.87214 0
-992.956 3.89644 0
-991.184 3.89267 0
-989.419 3.85793 0
-987.656 3.79938 0
-985.899 3.71453 0
-984.149 3.60617 0
-982.404 3.47362 0
-980.667 3.3215 0
-978.936 3.1478 0
-977.213 2.95685 0
-975.495 2.74943 0
-973.783 2.52578 0
-972.079 2.28672 0
-970.384 2.03568 0
-968.694 1.77233 0
-967.012 1.49771 0
-965.338 1.21236 0
-963.67 0.919942 0
-962.011 0.621131 0
-960.358 0.316394 0
-958.711 0.00857801 0
-957.073 -0.305261 0
-955.442 -0.619085 0
-953.815 -0.935411 0
-952.195 -1.25221 0
-950.582 -1.56886 0
-948.974 -1.88295 0
-947.373 -2.19369 0
-945.776 -2.50496 0
-944.186 -2.80898 0
-942.601 -3.10955 0
-941.02 -3.40117 0
-939.444 -3.69012 0
-937.872 -3.97005 0
-936.305 -4.2462 0
-934.741 -4.51186 0
-933.181 -4.76941 0
-931.624 -5.02005 0
-930.07 -5.259 0
-928.519 -5.4892 0
-926.971 -5.70972 0
-925.425 -5.92256 0
-923.881 -6.12197 0
-922.34 -6.31243 0
-920.799 -6.49235 0
-919.259 -6.6599 0
-917.722 -6.81859 0
-916.185 -6.96628 0
-914.649 -7.10372 0
-913.114 -7.22935 0
-911.579 -7.34479 0
-910.044 -7.44874 0
-908.51 -7.54097 0
-906.974 -7.62424 0
-905.44 -7.6974 0
-903.902 -7.76084 0
-902.367 -7.81438 0
-900.83 -7.85935 0
-899.293 -7.89159 0
-897.752 -7.91783 0
-896.21 -7.93487 0
-894.669 -7.93988 0
-893.126 -7.93974 0
-891.581 -7.93233 0
-890.037 -7.91522 0
-888.489 -7.89245 0
-886.94 -7.8612 0
-885.389 -7.82442 0
-883.838 -7.78069 0
-882.284 -7.72948 0
-880.728 -7.67512 0
-879.17 -7.61446 0
-877.61 -7.54771 0
-876.049 -7.47594 0
-874.486 -7.40104 0
-872.921 -7.32274 0
-871.355 -7.24133 0
-869.785 -7.15589 0
-868.214 -7.06684 0
-866.641 -6.97567 0
-865.067 -6.88346 0
-863.491 -6.7893 0
-861.912 -6.69106 0
-860.333 -6.59334 0
-858.752 -6.49065 0
-857.167 -6.39223 0
-855.582 -6.29081 0
-853.997 -6.18873 0
-852.408 -6.08977 0
-850.819 -5.98765 0
-849.228 -5.88815 0
-847.634 -5.78879 0
-846.04 -5.68863 0
-844.446 -5.58873 0
-842.85 -5.49488 0
-841.251 -5.39883 0
-839.653 -5.30499 0
-838.051 -5.2126 0
-836.45 -5.1228 0
-834.847 -5.03418 0
-833.244 -4.94852 0
-831.641 -4.86349 0
-830.033 -4.78085 0
-828.429 -4.70464 0
-826.823 -4.62791 0
-825.216 -4.55436 0
-823.609 -4.48536 0
-822.001 -4.41659 0
-820.393 -4.35321 0
-818.784 -4.2907 0
-817.172 -4.23286 0
-815.562 -4.17773 0
-813.953 -4.12241 0
-812.341 -4.07649 0
-810.733 -4.03156 0
-809.122 -3.99041 0
-807.513 -3.94956 0
-805.902 -3.91038 0
-804.293 -3.87624 0
-802.68 -3.84516 0
-801.07 -3.81785 0
-799.458 -3.79142 0
-797.847 -3.76991 0
-796.239 -3.75044 0
-794.628 -3.73355 0
-793.017 -3.7182 0
-791.409 -3.71082 0
-789.803 -3.69969 0
-788.193 -3.69487 0
-786.584 -3.69058 0
-784.973 -3.6912 0
-783.364 -3.69282 0
-781.758 -3.69546 0
-780.151 -3.70285 0
-778.544 -3.70912 0
-776.939 -3.72104 0
-775.334 -3.73346 0
-773.728 -3.74913 0
-772.124 -3.76606 0
-770.523 -3.7808 0
-768.918 -3.797 0
-767.315 -3.81833 0
-765.713 -3.84143 0
-764.11 -3.86179 0
-762.512 -3.88519 0
-760.91 -3.90939 0
-759.308 -3.93741 0
-757.709 -3.96371 0
-756.107 -3.9912 0
-754.508 -4.0195 0
-752.911 -4.05075 0
-751.311 -4.08253 0
-749.713 -4.10942 0
-748.117 -4.14089 0
-746.524 -4.17283 0
-744.926 -4.19997 0
-743.329 -4.23413 0
-741.734 -4.27013 0
-740.14 -4.30085 0
-738.55 -4.3319 0
-736.953 -4.36688 0
-735.362 -4.39866 0
-733.769 -4.42682 0
-732.175 -4.46025 0
-730.585 -4.4894 0
-728.995 -4.51966 0
-727.403 -4.54865 0
-725.814 -4.57985 0
-724.223 -4.60666 0
-722.632 -4.63427 0
-721.043 -4.66291 0
-719.453 -4.6888 0
-717.865 -4.71213 0
-716.276 -4.73935 0
-714.686 -4.76277 0
-713.096 -4.78839 0
-711.507 -4.81438 0
-709.917 -4.83431 0
-708.328 -4.85866 0
-706.742 -4.87711 0
-705.155 -4.89551 0
-703.568 -4.91721 0
-701.978 -4.93478 0
-700.39 -4.95189 0
-698.802 -4.968 0
-697.217 -4.98267 0
-695.629 -4.99847 0
-694.043 -5.01212 0
-692.455 -5.02299 0
-690.866 -5.0329 0
-689.278 -5.04615 0
-687.689 -5.05508 0
-686.103 -5.06188 0
-684.516 -5.07223 0
-682.924 -5.07849 0
-681.339 -5.08885 0
-679.755 -5.09352 0
-678.169 -5.09483 0
-676.578 -5.09859 0
-674.99 -5.10074 0
-673.403 -5.10405 0
-671.814 -5.10725 0
-670.227 -5.1068 0
-668.635 -5.10373 0
-667.048 -5.1028 0
-665.46 -5.10282 0
-663.873 -5.10269 0
-662.284 -5.09879 0
-660.698 -5.09615 0
-659.11 -5.09135 0
-657.522 -5.08565 0
-655.93 -5.08096 0
-654.342 -5.07446 0
-652.756 -5.07088 0
-651.167 -5.06484 0
-649.575 -5.05768 0
-647.986 -5.05314 0
-646.396 -5.044 0
-644.807 -5.03491 0
-643.217 -5.0216 0
-641.627 -5.01669 0
-640.036 -5.00729 0
-638.441 -4.99625 0
-636.849 -4.98672 0
-635.262 -4.97738 0
-633.67 -4.96996 0
-632.078 -4.95581 0
-630.486 -4.94459 0
-628.893 -4.93111 0
-627.301 -4.92321 0
-625.711 -4.91456 0
-624.118 -4.90377 0
-622.524 -4.89215 0
-620.933 -4.88226 0
-619.339 -4.87153 0
-617.745 -4.86127 0
-616.154 -4.85078 0
-614.566 -4.83962 0
-612.973 -4.82812 0
-611.381 -4.8138 0
-609.789 -4.80485 0
-608.191 -4.79318 0
-606.598 -4.78298 0
-605.004 -4.77181 0
-603.412 -4.76267 0
-601.816 -4.75579 0
-600.226 -4.74445 0
-598.633 -4.72987 0
-597.037 -4.7228 0
-595.444 -4.71625 0
-593.853 -4.70685 0
-592.258 -4.7002 0
-590.661 -4.68905 0
-589.068 -4.68235 0
-587.474 -4.67845 0
-585.879 -4.66719 0
-584.286 -4.66031 0
-582.69 -4.65441 0
-581.098 -4.64724 0
-579.501 -4.63802 0
-577.91 -4.63702 0
-576.313 -4.62625 0
-574.719 -4.62298 0
-573.125 -4.61793 0
-571.53 -4.61376 0
-569.937 -4.61007 0
-568.344 -4.60338 0
-566.748 -4.60125 0
-565.152 -4.60064 0
-563.557 -4.59618 0
-561.961 -4.59446 0
-560.367 -4.59162 0
-558.774 -4.58864 0
-557.181 -4.58844 0
-555.589 -4.58353 0
-553.997 -4.58448 0
-552.4 -4.58651 0
-550.805 -4.57932 0
-549.21 -4.58162 0
-547.614 -4.57965 0
-546.019 -4.57953 0
-544.425 -4.58863 0
-542.829 -4.58268 0
-541.239 -4.5834 0
-539.643 -4.585 0
-538.048 -4.58595 0
-536.455 -4.58217 0
-534.861 -4.58618 0
-533.267 -4.58757 0
-531.671 -4.58942 0
-530.083 -4.5917 0
-528.488 -4.59156 0
-526.893 -4.59371 0
-525.299 -4.59298 0
-523.709 -4.60037 0
-522.11 -4.60213 0
-520.514 -4.60318 0
-518.921 -4.60535 0
-517.33 -4.60742 0
-515.741 -4.61427 0
-514.145 -4.61248 0
-512.555 -4.61823 0
-510.962 -4.62015 0
-509.369 -4.62327 0
-507.78 -4.62693 0
-506.182 -4.62949 0
-504.59 -4.63465 0
-502.996 -4.63833 0
-501.4 -4.64097 0
-499.807 -4.64734 0
-498.216 -4.65197 0
-496.625 -4.65642 0
-495.032 -4.65724 0
-493.442 -4.66129 0
-491.846 -4.66534 0
-490.251 -4.67082 0
-488.66 -4.67088 0
-487.069 -4.67234 0
-485.478 -4.67513 0
-483.884 -4.67983 0
-482.292 -4.67907 0
-480.696 -4.6794 0
-479.103 -4.69191 0
-477.514 -4.69077 0
-475.918 -4.69613 0
-474.326 -4.69707 0
-472.736 -4.70069 0
-471.142 -4.70109 0
-469.552 -4.70637 0
-467.959 -4.70898 0
-466.371 -4.71434 0
-464.778 -4.71861 0
-463.183 -4.7205 0
-461.596 -4.72206 0
-460.002 -4.72626 0
-458.411 -4.72938 0
-456.82 -4.73142 0
-455.228 -4.73179 0
-453.637 -4.73149 0
-452.041 -4.73737 0
-450.451 -4.73733 0
-448.858 -4.73817 0
-447.267 -4.74233 0
-445.677 -4.74599 0
-444.085 -4.74696 0
-442.495 -4.74719 0
-440.903 -4.74691 0
-439.311 -4.75125 0
-437.715 -4.75242 0
-436.124 -4.75392 0
-434.53 -4.75347 0
-432.941 -4.75899 0
-431.352 -4.7587 0
-429.756 -4.75528 0
-428.163 -4.76256 0
-426.572 -4.76239 0
-424.981 -4.76127 0
-423.393 -4.76368 0
-421.799 -4.76538 0
-420.207 -4.76651 0
-418.619 -4.76727 0
-417.027 -4.76296 0
-415.433 -4.75995 0
-413.841 -4.76237 0
-412.249 -4.76332 0
-410.659 -4.76343 0
-409.065 -4.76558 0
-407.478 -4.76133 0
-405.883 -4.7616 0
-404.293 -4.76162 0
-402.701 -4.76098 0
-401.111 -4.75725 0
-399.52 -4.75675 0
-397.928 -4.75494 0
-396.333 -4.75491 0
-394.744 -4.75173 0
-393.155 -4.75483 0
-391.562 -4.75231 0
-389.963 -4.74463 0
-388.37 -4.74636 0
-386.781 -4.7496 0
-385.19 -4.74892 0
-383.597 -4.75445 0
-382.009 -4.75136 0
-380.418 -4.74726 0
-378.824 -4.74936 0
-377.231 -4.74532 0
-375.64 -4.74553 0
-374.046 -4.74136 0
-372.448 -4.74248 0
-370.861 -4.74318 0
-369.267 -4.74177 0
-367.676 -4.73966 0
-366.084 -4.73904 0
-364.492 -4.7391 0
-362.893 -4.73615 0
-361.301 -4.73362 0
-359.708 -4.73919 0
-358.119 -4.73587 0
-356.531 -4.73051 0
-354.94 -4.73044 0
-353.345 -4.72849 0
-351.755 -4.72998 0
-350.164 -4.72818 0
-348.57 -4.72835 0
-346.98 -4.72402 0
-345.39 -4.72434 0
-343.797 -4.72031 0
-342.204 -4.72254 0
-340.612 -4.7194 0
-339.019 -4.72238 0
-337.428 -4.71835 0
-335.835 -4.72233 0
-334.24 -4.71897 0
-332.65 -4.71791 0
-331.056 -4.71922 0
-329.466 -4.71731 0
-327.87 -4.71697 0
-326.279 -4.71824 0
-324.692 -4.7097 0
-323.094 -4.7114 0
-321.502 -4.71299 0
-319.91 -4.71065 0
-318.318 -4.71065 0
-316.729 -4.70864 0
-315.132 -4.71237 0
-313.543 -4.7078 0
-311.95 -4.70361 0
-310.357 -4.70349 0
-308.766 -4.70546 0
-307.175 -4.70546 0
-305.586 -4.70604 0
-303.997 -4.71031 0
-302.394 -4.70611 0
-300.803 -4.7054 0
-299.213 -4.70358 0
-297.62 -4.70498 0
-296.027 -4.70488 0
-294.437 -4.70076 0
-292.843 -4.69857 0
-291.251 -4.69746 0
-289.661 -4.70093 0
-288.071 -4.70099 0
-286.477 -4.69595 0
-284.892 -4.69833 0
-283.302 -4.70117 0
-281.707 -4.69559 0
-280.114 -4.70472 0
-278.517 -4.70342 0
-276.925 -4.70144 0
-275.331 -4.69228 0
-273.744 -4.69877 0
-272.15 -4.70019 0
-270.562 -4.69944 0
-268.965 -4.69658 0
-267.374 -4.69286 0
-265.78 -4.69586 0
-264.193 -4.69917 0
-262.6 -4.69867 0
-261.007 -4.69841 0
-259.417 -4.70384 0
-257.823 -4.69615 0
-256.229 -4.6973 0
-254.639 -4.70203 0
-253.046 -4.70143 0
-251.456 -4.70284 0
-249.864 -4.6989 0
-248.267 -4.7026 0
-246.681 -4.70528 0
-245.087 -4.69809 0
-243.496 -4.69738 0
-241.913 -4.69638 0
-240.313 -4.70461 0
-238.723 -4.70345 0
-237.131 -4.70193 0
-235.545 -4.70801 0
-233.947 -4.70112 0
-232.355 -4.70201 0
-230.762 -4.69966 0
-229.163 -4.70459 0
-227.577 -4.70126 0
-225.988 -4.70307 0
-224.396 -4.70405 0
-222.805 -4.70808 0
-221.215 -4.6997 0
-219.622 -4.70609 0
-218.032 -4.70575 0
-216.443 -4.70485 0
-214.848 -4.70444 0
-213.255 -4.70071 0
-211.664 -4.69924 0
-210.065 -4.69856 0
-208.477 -4.70462 0
-206.882 -4.70685 0
-205.292 -4.70603 0
-203.698 -4.70963 0
-202.107 -4.70509 0
-200.518 -4.70732 0
-198.924 -4.70395 0
-197.331 -4.7068 0
-195.74 -4.70452 0
-194.148 -4.71027 0
-192.557 -4.70567 0
-190.965 -4.70941 0
-189.376 -4.71054 0
-187.784 -4.70874 0
-186.196 -4.7118 0
-184.604 -4.71199 0
-183.013 -4.7143 0
-181.419 -4.71371 0
-179.826 -4.71261 0
-178.233 -4.70658 0
-176.64 -4.70915 0
-175.05 -4.70965 0
-173.459 -4.7097 0
-171.867 -4.71253 0
-170.274 -4.71241 0
-168.686 -4.71364 0
-167.096 -4.71535 0
-165.507 -4.71227 0
-163.912 -4.71618 0
-162.32 -4.71979 0
-160.73 -4.71634 0
-159.137 -4.71624 0
-157.548 -4.71737 0
-155.955 -4.7169 0
-154.361 -4.71347 0
-152.769 -4.71397 0
-151.178 -4.70942 0
-149.587 -4.71218 0
-147.995 -4.70885 0
-146.404 -4.71145 0
-144.809 -4.71518 0
-143.218 -4.71297 0
-141.633 -4.71344 0
-140.04 -4.71154 0
-138.449 -4.71322 0
-136.855 -4.71419 0
-135.264 -4.71607 0
-133.673 -4.71647 0
-132.08 -4.71239 0
-130.486 -4.71312 0
-128.894 -4.71352 0
-127.304 -4.71608 0
-125.71 -4.71623 0
-124.118 -4.71948 0
-122.531 -4.72025 0
-120.944 -4.71822 0
-119.35 -4.71731 0
-117.759 -4.71597 0
-116.168 -4.71665 0
-114.576 -4.71724 0
-112.984 -4.71903 0
-111.393 -4.7157 0
-109.798 -4.71526 0
-108.207 -4.71614 0
-106.615 -4.71413 0
-105.026 -4.71479 0
-103.432 -4.71435 0
-101.84 -4.71641 0
-100.249 -4.7135 0
-98.6575 -4.71598 0
-97.0679 -4.71333 0
-95.4764 -4.71615 0
-93.8865 -4.71325 0
-92.2953 -4.71649 0
-90.7033 -4.7174 0
-89.1148 -4.71788 0
-87.5221 -4.71827 0
-85.9302 -4.71801 0
-84.34 -4.71931 0
-82.7462 -4.71764 0
-81.1525 -4.71815 0
-79.5627 -4.72104 0
-77.9745 -4.71744 0
-76.3793 -4.71951 0
-74.7857 -4.71788 0
-73.193 -4.71598 0
-71.6028 -4.71868 0
-70.0109 -4.71727 0
-68.4185 -4.71657 0
-66.8293 -4.71621 0
-65.2372 -4.71527 0
-63.6464 -4.71735 0
-62.054 -4.71393 0
-60.4636 -4.71344 0
-58.8743 -4.71227 0
-57.2836 -4.71053 0
-55.6892 -4.71275 0
-54.102 -4.71348 0
-52.5101 -4.7137 0
-50.9197 -4.71366 0
-49.3261 -4.7127 0
-47.7309 -4.71697 0
-46.1431 -4.71667 0
-44.5493 -4.71369 0
-42.9597 -4.7171 0
-41.3719 -4.71826 0
-39.7851 -4.71652 0
-38.1898 -4.71354 0
-36.5997 -4.71628 0
-35.0083 -4.71892 0
-33.4186 -4.7151 0
-31.8261 -4.71489 0
-30.2322 -4.71019 0
-28.6419 -4.70978 0
-27.0526 -4.71428 0
-25.4606 -4.71454 0
-23.8709 -4.71265 0
-22.2779 -4.71006 0
-20.6846 -4.71064 0
-19.0894 -4.71405 0
-17.498 -4.71023 0
-15.9047 -4.70959 0
-14.315 -4.71284 0
-12.7248 -4.71239 0
-11.1376 -4.71319 0
-9.54819 -4.71345 0
-7.95794 -4.70897 0
-6.36822 -4.70646 0
-4.7774 -4.70905 0
-3.18368 -4.71061 0
-1.59315 -4.71144 0
0 -4.71345 0
-1065.61 89.757 0
-1065.96 80.324 0
-1066.31 71.0436 0
-1066.63 61.983 0
-1066.92 53.1778 0
-1067.16 44.6949 0
-1067.36 36.6248 0
-1067.52 29.0317 0
-1067.66 21.9538 0
-1067.74 15.4111 0
-1067.78 9.42317 0
-1067.74 4.01139 0
-1067.66 -0.817252 0
-1067.6 -5.13456 0
-1067.62 -9.13826 0
-1067.59 -12.9141 0
-1067.5 -16.3713 0
-1067.37 -19.4487 0
-1067.22 -22.1337 0
-1067.04 -24.4335 0
-1066.85 -26.3586 0
-1066.62 -27.9216 0
-1066.36 -29.1485 0
-1066.06 -30.0645 0
-1065.72 -30.6979 0
-1065.33 -31.0796 0
-1064.88 -31.2339 0
-1064.38 -31.1864 0
-1063.82 -30.9612 0
-1063.21 -30.5747 0
-1062.53 -30.0471 0
-1061.8 -29.3953 0
-1061.01 -28.6353 0
-1060.17 -27.7787 0
-1059.27 -26.8417 0
-1058.32 -25.8354 0
-1057.31 -24.7728 0
-1056.26 -23.6635 0
-1055.16 -22.5149 0
-1054.01 -21.3387 0
-1052.82 -20.1414 0
-1051.59 -18.9311 0
-1050.31 -17.7162 0
-1049 -16.5015 0
-1047.65 -15.2918 0
-1046.27 -14.0937 0
-1044.85 -12.9121 0
-1043.4 -11.75 0
-1041.93 -10.6118 0
-1040.42 -9.50139 0
-1038.9 -8.42083 0
-1037.34 -7.37312 0
-1035.77 -6.36039 0
-1034.18 -5.38534 0
-1032.56 -4.44846 0
-1030.93 -3.55138 0
-1029.29 -2.6951 0
-1027.63 -1.88077 0
-1025.95 -1.11027 0
-1024.26 -0.381791 0
-1022.57 0.302672 0
-1020.86 0.943357 0
-1019.14 1.53951 0
-1017.42 2.09316 0
-1015.69 2.60382 0
-1013.95 3.07038 0
-1012.21 3.49666 0
-1010.46 3.88177 0
-1008.71 4.22485 0
-1006.96 4.52734 0
-1005.21 4.79173 0
-1003.46 5.01717 0
-1001.7 5.20663 0
-999.95 5.35864 0
-998.198 5.47688 0
-996.448 5.56025 0
-994.699 5.61272 0
-992.952 5.63339 0
-991.209 5.62514 0
-989.469 5.58761 0
-987.733 5.5241 0
-986 5.43385 0
-984.272 5.31979 0
-982.55 5.18219 0
-980.833 5.02359 0
-979.12 4.84456 0
-977.413 4.64748 0
-975.711 4.43342 0
-974.015 4.20317 0
-972.325 3.95829 0
-970.639 3.70021 0
-968.962 3.4299 0
-967.29 3.1487 0
-965.624 2.85791 0
-963.964 2.55893 0
-962.31 2.25288 0
-960.662 1.94291 0
-959.02 1.62737 0
-957.383 1.30783 0
-955.752 0.988346 0
-954.127 0.66526 0
-952.508 0.344337 0
-950.893 0.0224482 0
-949.283 -0.296396 0
-947.678 -0.614075 0
-946.079 -0.929259 0
-944.484 -1.23825 0
-942.892 -1.54228 0
-941.306 -1.84129 0
-939.724 -2.13184 0
-938.145 -2.41747 0
-936.571 -2.69568 0
-934.998 -2.96503 0
-933.431 -3.22575 0
-931.866 -3.47946 0
-930.302 -3.72078 0
-928.741 -3.95459 0
-927.183 -4.17707 0
-925.627 -4.39108 0
-924.074 -4.59395 0
-922.521 -4.7844 0
-920.971 -4.96461 0
-919.421 -5.13559 0
-917.872 -5.29469 0
-916.325 -5.4428 0
-914.779 -5.58001 0
-913.231 -5.70679 0
-911.686 -5.82265 0
-910.141 -5.92726 0
-908.596 -6.02016 0
-907.05 -6.10242 0
-905.506 -6.1752 0
-903.961 -6.23902 0
-902.414 -6.29151 0
-900.867 -6.3356 0
-899.318 -6.36817 0
-897.771 -6.3922 0
-896.222 -6.40723 0
-894.672 -6.4136 0
-893.121 -6.41179 0
-891.57 -6.40162 0
-890.016 -6.38419 0
-888.462 -6.35874 0
-886.905 -6.32651 0
-885.35 -6.28906 0
-883.791 -6.24308 0
-882.231 -6.19153 0
-880.671 -6.13478 0
-879.108 -6.07154 0
-877.542 -6.00385 0
-875.977 -5.93164 0
-874.409 -5.85338 0
-872.842 -5.77379 0
-871.27 -5.68872 0
-869.699 -5.60178 0
-868.125 -5.51303 0
-866.55 -5.41985 0
-864.973 -5.32609 0
-863.395 -5.22971 0
-861.815 -5.13015 0
-860.234 -5.03012 0
-858.651 -4.92709 0
-857.068 -4.8252 0
-855.484 -4.72432 0
-853.896 -4.62187 0
-852.307 -4.51917 0
-850.719 -4.4178 0
-849.129 -4.31524 0
-847.537 -4.21345 0
-845.944 -4.11295 0
-844.35 -4.01313 0
-842.754 -3.91579 0
-841.158 -3.81931 0
-839.56 -3.72496 0
-837.962 -3.63168 0
-836.363 -3.54242 0
-834.762 -3.45037 0
-833.161 -3.36467 0
-831.558 -3.27926 0
-829.956 -3.19722 0
-828.353 -3.11768 0
-826.748 -3.0417 0
-825.145 -2.96904 0
-823.539 -2.89761 0
-821.934 -2.8301 0
-820.33 -2.76446 0
-818.724 -2.7032 0
-817.118 -2.64261 0
-815.51 -2.58743 0
-813.902 -2.5351 0
-812.297 -2.48619 0
-810.691 -2.44278 0
-809.082 -2.39976 0
-807.474 -2.35964 0
-805.867 -2.32181 0
-804.259 -2.2868 0
-802.652 -2.25533 0
-801.042 -2.22751 0
-799.435 -2.20068 0
-797.828 -2.17927 0
-796.221 -2.1602 0
-794.611 -2.14377 0
-793.006 -2.13046 0
-791.399 -2.12304 0
-789.792 -2.11296 0
-788.186 -2.10486 0
-786.58 -2.10322 0
-784.975 -2.10391 0
-783.367 -2.10591 0
-781.761 -2.10775 0
-780.157 -2.11605 0
-778.553 -2.12595 0
-776.949 -2.13551 0
-775.345 -2.148 0
-773.743 -2.16479 0
-772.141 -2.18056 0
-770.539 -2.19556 0
-768.936 -2.21452 0
-767.336 -2.23611 0
-765.734 -2.25702 0
-764.133 -2.28171 0
-762.534 -2.30415 0
-760.933 -2.32906 0
-759.333 -2.35578 0
-757.735 -2.38303 0
-756.137 -2.41065 0
-754.539 -2.44121 0
-752.941 -2.47186 0
-751.342 -2.50218 0
-749.746 -2.53237 0
-748.15 -2.56455 0
-746.553 -2.59386 0
-744.957 -2.621 0
-743.362 -2.65829 0
-741.767 -2.69345 0
-740.172 -2.72646 0
-738.578 -2.75654 0
-736.985 -2.78974 0
-735.391 -2.82315 0
-733.798 -2.85431 0
-732.208 -2.8885 0
-730.617 -2.91771 0
-729.024 -2.94891 0
-727.434 -2.97845 0
-725.843 -3.00628 0
-724.25 -3.03356 0
-722.659 -3.06331 0
-721.067 -3.08904 0
-719.477 -3.11653 0
-717.889 -3.14287 0
-716.299 -3.16752 0
-714.709 -3.1926 0
-713.121 -3.21745 0
-711.528 -3.24116 0
-709.94 -3.26316 0
-708.352 -3.28771 0
-706.761 -3.30859 0
-705.173 -3.32866 0
-703.586 -3.34589 0
-701.996 -3.36368 0
-700.406 -3.38139 0
-698.819 -3.39903 0
-697.23 -3.41444 0
-695.642 -3.43018 0
-694.052 -3.44368 0
-692.465 -3.4544 0
-690.877 -3.46648 0
-689.289 -3.47596 0
-687.699 -3.48716 0
-686.109 -3.4953 0
-684.521 -3.50121 0
-682.936 -3.51049 0
-681.346 -3.51952 0
-679.756 -3.5242 0
-678.169 -3.52706 0
-676.582 -3.53025 0
-674.992 -3.52996 0
-673.404 -3.53404 0
-671.815 -3.53769 0
-670.228 -3.53567 0
-668.636 -3.53404 0
-667.049 -3.53443 0
-665.461 -3.53497 0
-663.87 -3.53361 0
-662.284 -3.52876 0
-660.694 -3.52794 0
-659.104 -3.51978 0
-657.516 -3.51554 0
-655.924 -3.51176 0
-654.338 -3.50524 0
-652.748 -3.501 0
-651.16 -3.49192 0
-649.569 -3.48452 0
-647.98 -3.48031 0
-646.392 -3.47059 0
-644.799 -3.46279 0
-643.208 -3.45119 0
-641.616 -3.44389 0
-640.025 -3.43317 0
-638.432 -3.42399 0
-636.841 -3.41446 0
-635.25 -3.40646 0
-633.658 -3.3968 0
-632.065 -3.38455 0
-630.474 -3.37104 0
-628.883 -3.36143 0
-627.291 -3.35226 0
-625.7 -3.33974 0
-624.104 -3.32731 0
-622.514 -3.31959 0
-620.922 -3.30889 0
-619.329 -3.29574 0
-617.734 -3.28717 0
-616.142 -3.2754 0
-614.551 -3.26586 0
-612.959 -3.25371 0
-611.368 -3.23959 0
-609.775 -3.2296 0
-608.183 -3.21909 0
-606.59 -3.20755 0
-604.994 -3.19826 0
-603.402 -3.18983 0
-601.81 -3.18123 0
-600.216 -3.16898 0
-598.622 -3.15847 0
-597.029 -3.14864 0
-595.436 -3.14179 0
-593.842 -3.13262 0
-592.247 -3.12385 0
-590.651 -3.11477 0
-589.057 -3.1069 0
-587.465 -3.10183 0
-585.875 -3.0943 0
-584.28 -3.08514 0
-582.686 -3.07944 0
-581.09 -3.07139 0
-579.499 -3.06503 0
-577.904 -3.06041 0
-576.31 -3.05202 0
-574.716 -3.04582 0
-573.119 -3.04404 0
-571.526 -3.03913 0
-569.933 -3.03546 0
-568.339 -3.03075 0
-566.741 -3.02588 0
-565.149 -3.02304 0
-563.553 -3.02128 0
-561.959 -3.01741 0
-560.363 -3.01592 0
-558.77 -3.01503 0
-557.178 -3.01356 0
-555.586 -3.01113 0
-553.993 -3.00989 0
-552.398 -3.00951 0
-550.802 -3.00643 0
-549.21 -3.00592 0
-547.617 -3.00471 0
-546.021 -3.00565 0
-544.426 -3.00879 0
-542.831 -3.00891 0
-541.238 -3.0082 0
-539.643 -3.00717 0
-538.049 -3.00957 0
-536.455 -3.00955 0
-534.861 -3.00957 0
-533.268 -3.01283 0
-531.677 -3.01682 0
-530.082 -3.0141 0
-528.486 -3.0157 0
-526.894 -3.01865 0
-525.302 -3.02176 0
-523.709 -3.02246 0
-522.114 -3.02551 0
-520.52 -3.02875 0
-518.927 -3.0319 0
-517.332 -3.03676 0
-515.74 -3.04122 0
-514.15 -3.04221 0
-512.557 -3.04353 0
-510.964 -3.04627 0
-509.374 -3.04974 0
-507.78 -3.05159 0
-506.186 -3.05563 0
-504.594 -3.06112 0
-503 -3.0647 0
-501.409 -3.06702 0
-499.818 -3.07253 0
-498.223 -3.07533 0
-496.629 -3.08164 0
-495.038 -3.08393 0
-493.442 -3.08865 0
-491.851 -3.0906 0
-490.255 -3.09516 0
-488.662 -3.09686 0
-487.068 -3.10087 0
-485.475 -3.10058 0
-483.885 -3.10968 0
-482.291 -3.10829 0
-480.701 -3.10708 0
-479.108 -3.11478 0
-477.515 -3.11593 0
-475.924 -3.12076 0
-474.332 -3.12615 0
-472.738 -3.12603 0
-471.148 -3.12844 0
-469.558 -3.13412 0
-467.967 -3.13405 0
-466.376 -3.14297 0
-464.782 -3.14452 0
-463.19 -3.1467 0
-461.596 -3.15165 0
-460.006 -3.15381 0
-458.414 -3.15614 0
-456.821 -3.15788 0
-455.229 -3.15948 0
-453.636 -3.15785 0
-452.043 -3.16266 0
-450.453 -3.16682 0
-448.86 -3.16624 0
-447.269 -3.17016 0
-445.678 -3.17299 0
-444.088 -3.17494 0
-442.497 -3.17622 0
-440.904 -3.17307 0
-439.312 -3.17747 0
-437.718 -3.17955 0
-436.129 -3.1794 0
-434.536 -3.18107 0
-432.942 -3.18616 0
-431.352 -3.18589 0
-429.76 -3.1853 0
-428.168 -3.189 0
-426.575 -3.19209 0
-424.981 -3.19123 0
-423.391 -3.19244 0
-421.8 -3.19318 0
-420.208 -3.19256 0
-418.614 -3.19471 0
-417.024 -3.19098 0
-415.431 -3.18852 0
-413.841 -3.18844 0
-412.249 -3.18796 0
-410.654 -3.19043 0
-409.064 -3.19162 0
-407.473 -3.18973 0
-405.883 -3.19005 0
-404.292 -3.19362 0
-402.703 -3.18893 0
-401.111 -3.18689 0
-399.52 -3.1844 0
-397.93 -3.18324 0
-396.336 -3.18223 0
-394.743 -3.18255 0
-393.152 -3.18302 0
-391.558 -3.17689 0
-389.967 -3.17285 0
-388.375 -3.17471 0
-386.785 -3.17401 0
-385.194 -3.17711 0
-383.602 -3.18091 0
-382.008 -3.17589 0
-380.415 -3.17453 0
-378.822 -3.17084 0
-377.227 -3.17058 0
-375.635 -3.17018 0
-374.044 -3.1678 0
-372.452 -3.16798 0
-370.859 -3.16859 0
-369.268 -3.16822 0
-367.678 -3.16782 0
-366.084 -3.16523 0
-364.492 -3.1627 0
-362.896 -3.16174 0
-361.307 -3.15795 0
-359.713 -3.16352 0
-358.121 -3.16278 0
-356.53 -3.16157 0
-354.94 -3.1574 0
-353.349 -3.15438 0
-351.757 -3.15954 0
-350.164 -3.15345 0
-348.57 -3.15438 0
-346.976 -3.15095 0
-345.386 -3.15088 0
-343.794 -3.14652 0
-342.202 -3.14862 0
-340.61 -3.14723 0
-339.018 -3.14651 0
-337.426 -3.14703 0
-335.833 -3.14939 0
-334.243 -3.14771 0
-332.649 -3.14354 0
-331.056 -3.14424 0
-329.465 -3.14353 0
-327.875 -3.14212 0
-326.281 -3.1416 0
-324.688 -3.13862 0
-323.097 -3.13763 0
-321.506 -3.13987 0
-319.91 -3.13996 0
-318.321 -3.13656 0
-316.727 -3.13686 0
-315.139 -3.13734 0
-313.542 -3.13546 0
-311.95 -3.13396 0
-310.358 -3.13136 0
-308.767 -3.13297 0
-307.173 -3.13285 0
-305.584 -3.13441 0
-303.987 -3.13317 0
-302.396 -3.13219 0
-300.802 -3.13332 0
-299.21 -3.13152 0
-297.619 -3.12905 0
-296.028 -3.1322 0
-294.436 -3.12654 0
-292.846 -3.12445 0
-291.253 -3.12459 0
-289.662 -3.12916 0
-288.069 -3.12561 0
-286.48 -3.12605 0
-284.888 -3.12569 0
-283.298 -3.12625 0
-281.707 -3.12606 0
-280.114 -3.12923 0
-278.519 -3.12797 0
-276.928 -3.12739 0
-275.336 -3.12731 0
-273.744 -3.12456 0
-272.152 -3.12913 0
-270.559 -3.12226 0
-268.965 -3.12087 0
-267.373 -3.12095 0
-265.783 -3.11977 0
-264.193 -3.12768 0
-262.597 -3.1224 0
-261.009 -3.12606 0
-259.416 -3.12755 0
-257.821 -3.12216 0
-256.232 -3.12275 0
-254.639 -3.12726 0
-253.046 -3.12674 0
-251.454 -3.13042 0
-249.861 -3.12781 0
-248.272 -3.13001 0
-246.678 -3.13405 0
-245.089 -3.12508 0
-243.498 -3.12827 0
-241.906 -3.12446 0
-240.315 -3.12722 0
-238.72 -3.12573 0
-237.13 -3.13069 0
-235.541 -3.1322 0
-233.948 -3.13056 0
-232.355 -3.12805 0
-230.762 -3.13049 0
-229.17 -3.12817 0
-227.581 -3.13168 0
-225.99 -3.13208 0
-224.396 -3.13439 0
-222.807 -3.13478 0
-221.213 -3.1317 0
-219.622 -3.13253 0
-218.032 -3.13427 0
-216.439 -3.12813 0
-214.845 -3.12888 0
-213.256 -3.12735 0
-211.661 -3.12995 0
-210.072 -3.12429 0
-208.48 -3.13121 0
-206.887 -3.13054 0
-205.294 -3.13159 0
-203.702 -3.1316 0
-202.109 -3.13161 0
-200.518 -3.13203 0
-198.925 -3.13133 0
-197.336 -3.13172 0
-195.742 -3.13147 0
-194.15 -3.1368 0
-192.56 -3.13616 0
-190.969 -3.13646 0
-189.378 -3.13629 0
-187.787 -3.13745 0
-186.194 -3.14027 0
-184.601 -3.13836 0
-183.009 -3.14245 0
-181.417 -3.14053 0
-179.825 -3.13972 0
-178.233 -3.13544 0
-176.642 -3.13952 0
-175.049 -3.13962 0
-173.462 -3.13681 0
-171.869 -3.13922 0
-170.277 -3.14126 0
-168.685 -3.14385 0
-167.097 -3.14261 0
-165.505 -3.14051 0
-163.914 -3.14147 0
-162.323 -3.1444 0
-160.731 -3.14313 0
-159.136 -3.14381 0
-157.543 -3.14354 0
-155.953 -3.14186 0
-154.363 -3.14058 0
-152.77 -3.13853 0
-151.178 -3.13939 0
-149.588 -3.13737 0
-147.996 -3.13549 0
-146.403 -3.13794 0
-144.813 -3.14212 0
-143.221 -3.14191 0
-141.63 -3.14177 0
-140.038 -3.13868 0
-138.448 -3.14305 0
-136.855 -3.14231 0
-135.263 -3.14128 0
-133.671 -3.14411 0
-132.08 -3.14108 0
-130.487 -3.14032 0
-128.896 -3.14144 0
-127.304 -3.1439 0
-125.712 -3.14197 0
-124.121 -3.14535 0
-122.531 -3.14636 0
-120.939 -3.14566 0
-119.348 -3.14358 0
-117.759 -3.14464 0
-116.167 -3.14415 0
-114.576 -3.14352 0
-112.983 -3.14515 0
-111.39 -3.14147 0
-109.799 -3.14343 0
-108.207 -3.14292 0
-106.615 -3.1437 0
-105.022 -3.14331 0
-103.434 -3.14099 0
-101.842 -3.14322 0
-100.25 -3.14172 0
-98.6613 -3.14235 0
-97.0673 -3.14397 0
-95.4744 -3.14163 0
-93.8837 -3.14204 0
-92.2938 -3.14497 0
-90.703 -3.14497 0
-89.1117 -3.14478 0
-87.5213 -3.14476 0
-85.929 -3.14475 0
-84.3365 -3.14463 0
-82.7446 -3.14495 0
-81.1533 -3.14662 0
-79.5613 -3.14552 0
-77.9696 -3.14607 0
-76.3784 -3.14455 0
-74.7874 -3.14529 0
-73.1952 -3.14431 0
-71.602 -3.14629 0
-70.0093 -3.1454 0
-68.4196 -3.14289 0
-66.8298 -3.14474 0
-65.2356 -3.14278 0
-63.6416 -3.14404 0
-62.0494 -3.14185 0
-60.4582 -3.14194 0
-58.8716 -3.14117 0
-57.2828 -3.14011 0
-55.6897 -3.13763 0
-54.0988 -3.14004 0
-52.5082 -3.13983 0
-50.9171 -3.13949 0
-49.3263 -3.14014 0
-47.735 -3.14312 0
-46.1442 -3.14536 0
-44.553 -3.14258 0
-42.9611 -3.14555 0
-41.3719 -3.14573 0
-39.7813 -3.1428 0
-38.1919 -3.14505 0
-36.5993 -3.14194 0
-35.0076 -3.14242 0
-33.4171 -3.14216 0
-31.8242 -3.14225 0
-30.2317 -3.14092 0
-28.6412 -3.14056 0
-27.0511 -3.14157 0
-25.4601 -3.14212 0
-23.8694 -3.14023 0
-22.2792 -3.14013 0
-20.6873 -3.13729 0
-19.0944 -3.1405 0
-17.4998 -3.13984 0
-15.9091 -3.13838 0
-14.3168 -3.13922 0
-12.7242 -3.13967 0
-11.1359 -3.14084 0
-9.54581 -3.13883 0
-7.95537 -3.1388 0
-6.36474 -3.13646 0
-4.77549 -3.13743 0
-3.18554 -3.14092 0
-1.59373 -3.13734 0
0 -3.13903 0
-1075.24 90.6141 0
-1075.19 80.9432 0
-1075.31 71.6514 0
-1075.37 62.5979 0
-1075.36 53.815 0
-1075.26 45.3546 0
-1075.07 37.2865 0
-1074.79 29.6825 0
-1074.45 22.5917 0
-1074.05 16.0423 0
-1073.58 10.0576 0
-1073.07 4.64036 0
-1072.55 -0.236636 0
-1072.09 -4.68011 0
-1071.69 -8.76076 0
-1071.32 -12.5083 0
-1070.9 -15.9321 0
-1070.42 -18.9979 0
-1069.9 -21.683 0
-1069.36 -23.9837 0
-1068.8 -25.9069 0
-1068.22 -27.4655 0
-1067.63 -28.6805 0
-1067.03 -29.5793 0
-1066.41 -30.1885 0
-1065.77 -30.539 0
-1065.1 -30.6558 0
-1064.4 -30.5679 0
-1063.67 -30.2973 0
-1062.89 -29.8644 0
-1062.08 -29.2887 0
-1061.22 -28.5876 0
-1060.33 -27.7783 0
-1059.39 -26.8736 0
-1058.41 -25.8891 0
-1057.39 -24.8362 0
-1056.33 -23.7276 0
-1055.23 -22.5733 0
-1054.09 -21.3825 0
-1052.92 -20.1637 0
-1051.7 -18.9271 0
-1050.46 -17.6785 0
-1049.18 -16.427 0
-1047.86 -15.1773 0
-1046.52 -13.9361 0
-1045.15 -12.7071 0
-1043.74 -11.4965 0
-1042.32 -10.3065 0
-1040.86 -9.14175 0
-1039.39 -8.00677 0
-1037.89 -6.90287 0
-1036.37 -5.83492 0
-1034.83 -4.80317 0
-1033.27 -3.80884 0
-1031.69 -2.85571 0
-1030.1 -1.94256 0
-1028.49 -1.07276 0
-1026.87 -0.244582 0
-1025.23 0.537142 0
-1023.59 1.2763 0
-1021.93 1.97135 0
-1020.27 2.62097 0
-1018.59 3.22469 0
-1016.91 3.78517 0
-1015.22 4.30117 0
-1013.52 4.77284 0
-1011.82 5.20337 0
-1010.11 5.59136 0
-1008.4 5.93678 0
-1006.69 6.24159 0
-1004.97 6.50683 0
-1003.26 6.73355 0
-1001.54 6.92258 0
-999.818 7.07428 0
-998.099 7.19134 0
-996.38 7.27349 0
-994.661 7.32422 0
-992.944 7.34272 0
-991.228 7.33183 0
-989.515 7.29116 0
-987.803 7.22385 0
-986.095 7.13013 0
-984.391 7.0116 0
-982.69 6.87057 0
-980.992 6.70738 0
-979.298 6.52366 0
-977.608 6.32175 0
-975.923 6.10259 0
-974.241 5.86705 0
-972.564 5.6176 0
-970.893 5.35287 0
-969.225 5.07761 0
-967.563 4.79242 0
-965.905 4.49502 0
-964.252 4.19122 0
-962.604 3.88182 0
-960.961 3.56484 0
-959.322 3.24388 0
-957.689 2.9199 0
-956.06 2.59411 0
-954.436 2.26779 0
-952.816 1.94 0
-951.201 1.61572 0
-949.59 1.29072 0