<?xml version="1.0"?>
<VTKFile type="StructuredGrid"  version="0.1" byte_order="LittleEndian" compressor="vtkZLibDataCompressor">
  <StructuredGrid WholeExtent="0 700 0 30 0 0">
    <Piece Extent="0 700 0 30 0 0">
      <PointData Vectors="Velocity">
        <DataArray type="Float32" Name="Velocity" NumberOfComponents="3" format="ascii">
-1060.47 92.7518 0
-1060.92 83.1958 0
-1061.42 73.7707 0
-1061.93 64.5629 0
-1062.47 55.6124 0
-1063.06 46.9987 0
-1063.69 38.802 0
-1064.34 31.0727 0
-1064.99 23.8483 0
-1065.62 17.145 0
-1066.22 10.9824 0
-1066.78 5.385 0
-1067.28 0.359178 0
-1067.66 -4.14034 0
-1067.83 -8.29535 0
-1068.09 -12.2087 0
-1068.34 -15.7982 0
-1068.59 -19.0215 0
-1068.82 -21.8625 0
-1069.02 -24.3172 0
-1069.19 -26.3993 0
-1069.32 -28.1269 0
-1069.39 -29.5175 0
-1069.41 -30.5987 0
-1069.35 -31.3955 0
-1069.22 -31.9384 0
-1069.01 -32.2485 0
-1068.73 -32.3497 0
-1068.36 -32.2649 0
-1067.92 -32.0128 0
-1067.41 -31.6115 0
-1066.82 -31.076 0
-1066.16 -30.4218 0
-1065.43 -29.6632 0
-1064.63 -28.817 0
-1063.77 -27.8915 0
-1062.84 -26.8998 0
-1061.85 -25.8512 0
-1060.81 -24.7587 0
-1059.71 -23.6288 0
-1058.55 -22.4711 0
-1057.35 -21.2909 0
-1056.09 -20.0996 0
-1054.79 -18.9023 0
-1053.45 -17.702 0
-1052.07 -16.5087 0
-1050.65 -15.3265 0
-1049.2 -14.158 0
-1047.71 -13.0086 0
-1046.19 -11.8816 0
-1044.64 -10.7815 0
-1043.06 -9.70754 0
-1041.46 -8.66692 0
-1039.83 -7.65829 0
-1038.19 -6.6851 0
-1036.52 -5.75105 0
-1034.84 -4.85282 0
-1033.13 -3.99475 0
-1031.42 -3.17888 0
-1029.68 -2.40255 0
-1027.94 -1.67106 0
-1026.19 -0.980388 0
-1024.42 -0.332312 0
-1022.65 0.272382 0
-1020.87 0.835373 0
-1019.08 1.3559 0
-1017.29 1.83303 0
-1015.5 2.26813 0
-1013.7 2.66203 0
-1011.9 3.01725 0
-1010.1 3.33058 0
-1008.3 3.60772 0
-1006.5 3.84466 0
-1004.69 4.04674 0
-1002.89 4.21156 0
-1001.1 4.34054 0
-999.302 4.43799 0
-997.508 4.50354 0
-995.72 4.53467 0
-993.936 4.53717 0
-992.157 4.51149 0
-990.383 4.45478 0
-988.613 4.37443 0
-986.852 4.27179 0
-985.093 4.1444 0
-983.343 3.99355 0
-981.599 3.82241 0
-979.862 3.63218 0
-978.131 3.4226 0
-976.409 3.19761 0
-974.693 2.95533 0
-972.985 2.7001 0
-971.283 2.43215 0
-969.59 2.15312 0
-967.902 1.86387 0
-966.222 1.56623 0
-964.548 1.26189 0
-962.884 0.949199 0
-961.226 0.631125 0
-959.574 0.307772 0
-957.929 -0.0188176 0
-956.292 -0.345651 0
-954.662 -0.675103 0
-953.038 -1.00468 0
-951.418 -1.33397 0
-949.805 -1.66088 0
-948.197 -1.98505 0
-946.596 -2.3059 0
-945 -2.62317 0
-943.41 -2.93224 0
-941.823 -3.2387 0
-940.242 -3.53889 0
-938.665 -3.83053 0
-937.092 -4.11728 0
-935.525 -4.39423 0
-933.96 -4.66247 0
-932.397 -4.92186 0
-930.839 -5.17175 0
-929.283 -5.41049 0
-927.727 -5.64214 0
-926.176 -5.86302 0
-924.628 -6.07443 0
-923.079 -6.27539 0
-921.534 -6.46458 0
-919.99 -6.64139 0
-918.447 -6.80907 0
-916.905 -6.96748 0
-915.364 -7.11137 0
-913.824 -7.24607 0
-912.283 -7.36803 0
-910.741 -7.48286 0
-909.201 -7.58417 0
-907.661 -7.67633 0
-906.12 -7.7563 0
-904.579 -7.8265 0
-903.038 -7.88752 0
-901.498 -7.93792 0
-899.953 -7.97863 0
-898.41 -8.00881 0
-896.865 -8.03263 0
-895.319 -8.04577 0
-893.77 -8.0506 0
-892.222 -8.04766 0
-890.669 -8.03751 0
-889.117 -8.01801 0
-887.562 -7.99118 0
-886.008 -7.9582 0
-884.451 -7.92044 0
-882.891 -7.874 0
-881.331 -7.82084 0
-879.769 -7.76355 0
-878.206 -7.70062 0
-876.64 -7.63187 0
-875.071 -7.55749 0
-873.5 -7.48103 0
-871.929 -7.40334 0
-870.357 -7.31739 0
-868.781 -7.22827 0
-867.202 -7.1377 0
-865.622 -7.04514 0
-864.039 -6.95051 0
-862.455 -6.85375 0
-860.87 -6.75547 0
-859.284 -6.65393 0
-857.695 -6.55366 0
-856.104 -6.4506 0
-854.512 -6.34726 0
-852.919 -6.24438 0
-851.325 -6.14129 0
-849.728 -6.03643 0
-848.129 -5.93222 0
-846.53 -5.83182 0
-844.929 -5.72985 0
-843.329 -5.62707 0
-841.725 -5.52752 0
-840.119 -5.43082 0
-838.514 -5.33426 0
-836.907 -5.24528 0
-835.299 -5.15202 0
-833.69 -5.05962 0
-832.079 -4.96952 0
-830.468 -4.88511 0
-828.856 -4.80109 0
-827.245 -4.72025 0
-825.634 -4.64278 0
-824.019 -4.56677 0
-822.404 -4.49399 0
-820.788 -4.42214 0
-819.171 -4.35734 0
-817.553 -4.29533 0
-815.936 -4.23376 0
-814.318 -4.17564 0
-812.699 -4.12205 0
-811.085 -4.07097 0
-809.468 -4.02133 0
-807.851 -3.97552 0
-806.233 -3.93392 0
-804.614 -3.89442 0
-802.993 -3.86019 0
-801.376 -3.82665 0
-799.76 -3.8018 0
-798.141 -3.77442 0
-796.523 -3.74851 0
-794.905 -3.72861 0
-793.287 -3.71005 0
-791.674 -3.69557 0
-790.056 -3.68297 0
-788.443 -3.67506 0
-786.827 -3.6686 0
-785.21 -3.66205 0
-783.594 -3.66005 0
-781.974 -3.66103 0
-780.36 -3.66575 0
-778.745 -3.66846 0
-777.13 -3.67578 0
-775.517 -3.68364 0
-773.903 -3.69509 0
-772.289 -3.70886 0
-770.679 -3.72443 0
-769.066 -3.73971 0
-767.455 -3.76192 0
-765.844 -3.78278 0
-764.237 -3.80382 0
-762.625 -3.82702 0
-761.018 -3.85322 0
-759.41 -3.88081 0
-757.8 -3.90617 0
-756.192 -3.93525 0
-754.588 -3.96064 0
-752.983 -3.99095 0
-751.375 -4.01945 0
-749.77 -4.05504 0
-748.163 -4.08794 0
-746.559 -4.1165 0
-744.955 -4.14734 0
-743.35 -4.1824 0
-741.749 -4.21469 0
-740.145 -4.24925 0
-738.545 -4.28001 0
-736.944 -4.31236 0
-735.343 -4.34482 0
-733.743 -4.379 0
-732.143 -4.41235 0
-730.542 -4.44752 0
-728.943 -4.47829 0
-727.344 -4.51353 0
-725.746 -4.54391 0
-724.148 -4.57496 0
-722.548 -4.60909 0
-720.954 -4.63884 0
-719.356 -4.66913 0
-717.761 -4.70172 0
-716.165 -4.72815 0
-714.567 -4.75875 0
-712.974 -4.78561 0
-711.376 -4.81289 0
-709.781 -4.84025 0
-708.184 -4.86551 0
-706.588 -4.8879 0
-704.992 -4.91289 0
-703.399 -4.9372 0
-701.804 -4.95987 0
-700.211 -4.98113 0
-698.618 -4.99853 0
-697.024 -5.01775 0
-695.43 -5.03544 0
-693.835 -5.05007 0
-692.242 -5.06839 0
-690.648 -5.08386 0
-689.058 -5.0926 0
-687.461 -5.10695 0
-685.867 -5.12377 0
-684.275 -5.13431 0
-682.68 -5.14474 0
-681.085 -5.14984 0
-679.49 -5.15642 0
-677.896 -5.16559 0
-676.305 -5.17161 0
-674.709 -5.17573 0
-673.114 -5.18502 0
-671.519 -5.18932 0
-669.922 -5.18981 0
-668.33 -5.19361 0
-666.738 -5.19679 0
-665.144 -5.19462 0
-663.552 -5.19628 0
-661.956 -5.19422 0
-660.359 -5.19435 0
-658.763 -5.19029 0
-657.168 -5.19014 0
-655.572 -5.18873 0
-653.974 -5.18399 0
-652.379 -5.18056 0
-650.785 -5.17576 0
-649.194 -5.16722 0
-647.6 -5.15934 0
-645.998 -5.15256 0
-644.401 -5.14549 0
-642.803 -5.13851 0
-641.207 -5.13091 0
-639.609 -5.11928 0
-638.011 -5.11626 0
-636.417 -5.1116 0
-634.821 -5.10186 0
-633.222 -5.08764 0
-631.627 -5.0809 0
-630.025 -5.06652 0
-628.429 -5.05912 0
-626.83 -5.04574 0
-625.232 -5.03406 0
-623.636 -5.02304 0
-622.036 -5.01211 0
-620.438 -5.00097 0
-618.84 -4.99055 0
-617.241 -4.97553 0
-615.638 -4.96231 0
-614.042 -4.95216 0
-612.446 -4.94336 0
-610.84 -4.92788 0
-609.242 -4.91612 0
-607.644 -4.90414 0
-606.043 -4.89273 0
-604.443 -4.87771 0
-602.846 -4.86752 0
-601.244 -4.8562 0
-599.643 -4.84733 0
-598.043 -4.83972 0
-596.443 -4.82876 0
-594.843 -4.82049 0
-593.237 -4.80649 0
-591.639 -4.79572 0
-590.038 -4.79278 0
-588.438 -4.78444 0
-586.837 -4.7775 0
-585.238 -4.76807 0
-583.636 -4.75771 0
-582.036 -4.74965 0
-580.437 -4.74053 0
-578.834 -4.733 0
-577.232 -4.72605 0
-575.629 -4.71627 0
-574.026 -4.70815 0
-572.427 -4.70203 0
-570.823 -4.69634 0
-569.221 -4.69438 0
-567.618 -4.68772 0
-566.017 -4.68039 0
-564.419 -4.67593 0
-562.819 -4.6687 0
-561.219 -4.66135 0
-559.617 -4.6602 0
-558.018 -4.65565 0
-556.417 -4.64807 0
-554.816 -4.64667 0
-553.213 -4.64181 0
-551.611 -4.6387 0
-550.011 -4.63887 0
-548.406 -4.63013 0
-546.806 -4.63266 0
-545.203 -4.62767 0
-543.602 -4.62841 0
-542.002 -4.62679 0
-540.401 -4.625 0
-538.798 -4.6256 0
-537.196 -4.62476 0
-535.594 -4.62225 0
-533.997 -4.61768 0
-532.396 -4.62354 0
-530.795 -4.62488 0
-529.196 -4.62393 0
-527.597 -4.62764 0
-525.992 -4.62988 0
-524.389 -4.62589 0
-522.786 -4.63046 0
-521.188 -4.63358 0
-519.588 -4.63159 0
-517.985 -4.63624 0
-516.387 -4.64055 0
-514.785 -4.6377 0
-513.184 -4.63879 0
-511.585 -4.64073 0
-509.983 -4.64394 0
-508.382 -4.6422 0
-506.783 -4.65002 0
-505.187 -4.65209 0
-503.59 -4.65639 0
-501.988 -4.65805 0
-500.385 -4.66067 0
-498.789 -4.66531 0
-497.187 -4.66777 0
-495.589 -4.67417 0
-493.988 -4.67063 0
-492.383 -4.67931 0
-490.786 -4.67867 0
-489.186 -4.67885 0
-487.584 -4.68406 0
-485.986 -4.693 0
-484.385 -4.69171 0
-482.791 -4.69701 0
-481.193 -4.70275 0
-479.59 -4.70532 0
-477.991 -4.70726 0
-476.391 -4.71702 0
-474.795 -4.71906 0
-473.197 -4.7234 0
-471.602 -4.72095 0
-470 -4.7279 0
-468.399 -4.73288 0
-466.8 -4.73656 0
-465.202 -4.73993 0
-463.604 -4.74051 0
-461.999 -4.74096 0
-460.402 -4.74249 0
-458.803 -4.74213 0
-457.204 -4.75242 0
-455.602 -4.75439 0
-454.002 -4.76223 0
-452.404 -4.75707 0
-450.805 -4.76375 0
-449.205 -4.76232 0
-447.606 -4.7652 0
-446.012 -4.76542 0
-444.418 -4.77324 0
-442.814 -4.76841 0
-441.22 -4.77252 0
-439.618 -4.77415 0
-438.013 -4.78117 0
-436.419 -4.78003 0
-434.817 -4.77958 0
-433.218 -4.78204 0
-431.623 -4.78325 0
-430.025 -4.78221 0
-428.429 -4.788 0
-426.826 -4.79165 0
-425.231 -4.79073 0
-423.634 -4.79477 0
-422.035 -4.79691 0
-420.432 -4.7919 0
-418.83 -4.79494 0
-417.237 -4.79088 0
-415.636 -4.79952 0
-414.038 -4.80255 0
-412.441 -4.80117 0
-410.84 -4.80197 0
-409.246 -4.79885 0
-407.643 -4.79679 0
-406.041 -4.79253 0
-404.444 -4.79326 0
-402.845 -4.79529 0
-401.247 -4.79852 0
-399.654 -4.79565 0
-398.054 -4.79676 0
-396.457 -4.79633 0
-394.857 -4.79657 0
-393.256 -4.79351 0
-391.658 -4.79593 0
-390.055 -4.78933 0
-388.454 -4.79544 0
-386.856 -4.79497 0
-385.26 -4.79108 0
-383.661 -4.79369 0
-382.061 -4.79343 0
-380.465 -4.79137 0
-378.87 -4.78886 0
-377.269 -4.78529 0
-375.665 -4.78343 0
-374.069 -4.78301 0
-372.472 -4.78644 0
-370.875 -4.7905 0
-369.272 -4.78715 0
-367.672 -4.78729 0
-366.08 -4.78771 0
-364.48 -4.78315 0
-362.881 -4.77249 0
-361.286 -4.77411 0
-359.683 -4.77522 0
-358.088 -4.77779 0
-356.492 -4.77334 0
-354.889 -4.77328 0
-353.289 -4.77651 0
-351.689 -4.76712 0
-350.091 -4.76406 0
-348.491 -4.76065 0
-346.894 -4.76789 0
-345.3 -4.76494 0
-343.702 -4.76758 0
-342.101 -4.76309 0
-340.493 -4.76458 0
-338.893 -4.76034 0
-337.297 -4.7626 0
-335.695 -4.75571 0
-334.094 -4.75864 0
-332.498 -4.76052 0
-330.901 -4.75566 0
-329.304 -4.75872 0
-327.702 -4.75365 0
-326.098 -4.75628 0
-324.503 -4.75186 0
-322.904 -4.75228 0
-321.311 -4.7484 0
-319.713 -4.75065 0
-318.113 -4.75058 0
-316.515 -4.74445 0
-314.917 -4.7433 0
-313.317 -4.74214 0
-311.72 -4.74116 0
-310.119 -4.73457 0
-308.518 -4.73738 0
-306.924 -4.73827 0
-305.322 -4.74123 0
-303.721 -4.74101 0
-302.123 -4.73375 0
-300.524 -4.72969 0
-298.92 -4.73351 0
-297.322 -4.73272 0
-295.724 -4.73715 0
-294.121 -4.73494 0
-292.521 -4.73542 0
-290.923 -4.74272 0
-289.327 -4.74067 0
-287.732 -4.7366 0
-286.127 -4.73494 0
-284.525 -4.73798 0
-282.927 -4.73192 0
-281.332 -4.72925 0
-279.731 -4.72992 0
-278.128 -4.72513 0
-276.528 -4.72839 0
-274.93 -4.72765 0
-273.328 -4.72997 0
-271.727 -4.73507 0
-270.133 -4.73514 0
-268.535 -4.73815 0
-266.938 -4.73089 0
-265.34 -4.72875 0
-263.745 -4.72596 0
-262.139 -4.7321 0
-260.542 -4.72544 0
-258.945 -4.72974 0
-257.341 -4.73325 0
-255.746 -4.73329 0
-254.145 -4.72608 0
-252.54 -4.72528 0
-250.944 -4.72478 0
-249.343 -4.72369 0
-247.749 -4.7213 0
-246.152 -4.72419 0
-244.553 -4.72376 0
-242.956 -4.72822 0
-241.352 -4.72687 0
-239.755 -4.72112 0
-238.152 -4.7241 0
-236.555 -4.7258 0
-234.957 -4.7303 0
-233.362 -4.72762 0
-231.769 -4.73083 0
-230.172 -4.72646 0
-228.567 -4.72756 0
-226.969 -4.72577 0
-225.372 -4.72256 0
-223.774 -4.73073 0
-222.173 -4.73032 0
-220.575 -4.73043 0
-218.976 -4.73237 0
-217.38 -4.73225 0
-215.776 -4.72892 0
-214.184 -4.72743 0
-212.583 -4.7327 0
-210.982 -4.73455 0
-209.382 -4.73574 0
-207.788 -4.73358 0
-206.191 -4.72997 0
-204.591 -4.73262 0
-202.992 -4.73662 0
-201.393 -4.73565 0
-199.796 -4.73771 0
-198.201 -4.73159 0
-196.602 -4.73315 0
-195.003 -4.73797 0
-193.398 -4.73559 0
-191.806 -4.73798 0
-190.204 -4.73614 0
-188.606 -4.73326 0
-187.006 -4.73456 0
-185.403 -4.73824 0
-183.811 -4.73574 0
-182.21 -4.73507 0
-180.612 -4.73388 0
-179.012 -4.73761 0
-177.416 -4.74166 0
-175.812 -4.73815 0
-174.218 -4.73469 0
-172.62 -4.7378 0
-171.019 -4.73951 0
-169.425 -4.73977 0
-167.829 -4.74098 0
-166.226 -4.73921 0
-164.627 -4.74311 0
-163.029 -4.74404 0
-161.428 -4.74117 0
-159.83 -4.73876 0
-158.235 -4.74134 0
-156.633 -4.7458 0
-155.035 -4.73603 0
-153.435 -4.74107 0
-151.84 -4.74179 0
-150.239 -4.73978 0
-148.639 -4.7442 0
-147.042 -4.74245 0
-145.445 -4.74007 0
-143.845 -4.73758 0
-142.247 -4.73396 0
-140.645 -4.73483 0
-139.051 -4.73386 0
-137.45 -4.73654 0
-135.85 -4.73633 0
-134.252 -4.73481 0
-132.654 -4.73953 0
-131.057 -4.73833 0
-129.462 -4.73785 0
-127.863 -4.73759 0
-126.263 -4.7395 0
-124.665 -4.73627 0
-123.066 -4.73918 0
-121.465 -4.73783 0
-119.866 -4.73613 0
-118.266 -4.73781 0
-116.669 -4.74157 0
-115.072 -4.73993 0
-113.475 -4.73932 0
-111.874 -4.73604 0
-110.274 -4.73952 0
-108.676 -4.74165 0
-107.08 -4.74273 0
-105.48 -4.7393 0
-103.881 -4.73889 0
-102.282 -4.73815 0
-100.685 -4.73516 0
-99.0875 -4.73488 0
-97.4904 -4.73407 0
-95.8926 -4.74278 0
-94.2959 -4.7428 0
-92.6969 -4.73956 0
-91.1 -4.73991 0
-89.5004 -4.73847 0
-87.9007 -4.73848 0
-86.302 -4.73995 0
-84.7043 -4.73889 0
-83.1031 -4.73888 0
-81.5078 -4.73822 0
-79.9099 -4.73943 0
-78.3071 -4.74158 0
-76.7122 -4.7359 0
-75.1149 -4.73706 0
-73.5166 -4.73687 0
-71.9165 -4.74193 0
-70.3174 -4.74224 0
-68.7197 -4.74123 0
-67.1216 -4.73881 0
-65.5233 -4.73849 0
-63.926 -4.73947 0
-62.3307 -4.74072 0
-60.7325 -4.73871 0
-59.1324 -4.74092 0
-57.5355 -4.73997 0
-55.9353 -4.73744 0
-54.3392 -4.74342 0
-52.7388 -4.7441 0
-51.141 -4.74247 0
-49.542 -4.73935 0
-47.945 -4.74013 0
-46.3517 -4.7374 0
-44.7493 -4.74035 0
-43.1513 -4.73733 0
-41.5556 -4.7394 0
-39.9553 -4.73792 0
-38.3565 -4.73507 0
-36.7574 -4.73598 0
-35.1598 -4.73951 0
-33.5602 -4.73548 0
-31.9645 -4.73411 0
-30.365 -4.7386 0
-28.7626 -4.7368 0
-27.1681 -4.73916 0
-25.5674 -4.73537 0
-23.9692 -4.73776 0
-22.3731 -4.73887 0
-20.773 -4.73404 0
-19.1776 -4.73603 0
-17.5802 -4.73406 0
-15.9811 -4.73937 0
-14.3832 -4.73799 0
-12.7817 -4.74135 0
-11.185 -4.74243 0
-9.58778 -4.74014 0
-7.99078 -4.73911 0
-6.39218 -4.741 0
-4.79257 -4.74102 0
-3.19345 -4.74185 0
-1.59882 -4.74028 0
0 -4.73784 0
-1070.03 93.2281 0
-1070.36 83.6187 0
-1070.69 74.163 0
-1071.01 64.9253 0
-1071.28 55.9417 0
-1071.51 47.2764 0
-1071.7 39.0218 0
-1071.86 31.24 0
-1071.98 23.9743 0
-1072.06 17.2445 0
-1072.09 11.0682 0
-1072.06 5.46787 0
-1071.97 0.449511 0
-1071.9 -4.03624 0
-1071.93 -8.19721 0
-1071.88 -12.1211 0
-1071.79 -15.7203 0
-1071.67 -18.9462 0
-1071.52 -21.7874 0
-1071.35 -24.2384 0
-1071.16 -26.3071 0
-1070.94 -28.011 0
-1070.68 -29.3702 0
-1070.39 -30.4101 0
-1070.06 -31.1569 0
-1069.68 -31.6414 0
-1069.25 -31.8915 0
-1068.76 -31.9306 0
-1068.22 -31.7807 0
-1067.62 -31.4644 0
-1066.96 -30.9979 0
-1066.24 -30.3981 0
-1065.47 -29.6808 0
-1064.64 -28.8617 0
-1063.76 -27.9537 0
-1062.82 -26.9698 0
-1061.84 -25.9209 0
-1060.8 -24.8185 0
-1059.71 -23.6732 0
-1058.58 -22.4925 0
-1057.4 -21.2858 0
-1056.18 -20.0609 0
-1054.92 -18.8247 0
-1053.61 -17.5874 0
-1052.28 -16.3485 0
-1050.9 -15.1178 0
-1049.5 -13.9014 0
-1048.06 -12.6995 0
-1046.59 -11.5206 0
-1045.09 -10.3664 0
-1043.57 -9.2382 0
-1042.02 -8.14137 0
-1040.45 -7.07792 0
-1038.86 -6.04827 0
-1037.25 -5.05591 0
-1035.62 -4.10251 0
-1033.98 -3.18927 0
-1032.32 -2.31708 0
-1030.64 -1.48548 0
-1028.95 -0.698606 0
-1027.25 0.0441743 0
-1025.53 0.744256 0
-1023.81 1.40102 0
-1022.08 2.01294 0
-1020.35 2.58145 0
-1018.6 3.10632 0
-1016.85 3.58912 0
-1015.1 4.02781 0
-1013.34 4.42423 0
-1011.58 4.78056 0
-1009.82 5.09616 0
-1008.05 5.37224 0
-1006.29 5.60936 0
-1004.52 5.81041 0
-1002.76 5.97309 0
-1000.99 6.10006 0
-999.228 6.19516 0
-997.467 6.25708 0
-995.709 6.28419 0
-993.954 6.28312 0
-992.204 6.25253 0
-990.455 6.19378 0
-988.71 6.10788 0
-986.97 5.99992 0
-985.235 5.8662 0
-983.505 5.70931 0
-981.782 5.53208 0
-980.062 5.33633 0
-978.348 5.11979 0
-976.642 4.88805 0
-974.94 4.63997 0
-973.245 4.37812 0
-971.555 4.10421 0
-969.871 3.8179 0
-968.193 3.52221 0
-966.522 3.21828 0
-964.856 2.90618 0
-963.196 2.58711 0
-961.544 2.26325 0
-959.895 1.93368 0
-958.253 1.6017 0
-956.617 1.26862 0
-954.987 0.932636 0
-953.361 0.598443 0
-951.74 0.264819 0
-950.126 -0.0693974 0
-948.516 -0.397732 0
-946.911 -0.723418 0
-945.31 -1.04537 0
-943.714 -1.36139 0
-942.123 -1.67154 0
-940.534 -1.97382 0
-938.95 -2.27084 0
-937.37 -2.56093 0
-935.793 -2.84098 0
-934.22 -3.11124 0
-932.648 -3.3739 0
-931.079 -3.62651 0
-929.514 -3.86962 0
-927.95 -4.10118 0
-926.389 -4.32561 0
-924.83 -4.53842 0
-923.272 -4.74096 0
-921.716 -4.93126 0
-920.161 -5.11 0
-918.606 -5.27877 0
-917.054 -5.43623 0
-915.5 -5.58292 0
-913.947 -5.71722 0
-912.398 -5.84076 0
-910.846 -5.95397 0
-909.296 -6.056 0
-907.744 -6.14662 0
-906.194 -6.22734 0
-904.643 -6.29867 0
-903.091 -6.35888 0
-901.541 -6.40854 0
-899.989 -6.44834 0
-898.436 -6.47797 0
-896.882 -6.49931 0
-895.327 -6.51119 0
-893.771 -6.51499 0
-892.213 -6.51127 0
-890.655 -6.49942 0
-889.095 -6.4802 0
-887.534 -6.45134 0
-885.973 -6.41734 0
-884.409 -6.37473 0
-882.843 -6.32775 0
-881.277 -6.2739 0
-879.709 -6.21487 0
-878.14 -6.14964 0
-876.569 -6.07878 0
-874.996 -6.00459 0
-873.423 -5.92556 0
-871.848 -5.84521 0
-870.269 -5.75972 0
-868.691 -5.66745 0
-867.111 -5.57379 0
-865.528 -5.48029 0
-863.946 -5.38421 0
-862.358 -5.28489 0
-860.771 -5.18435 0
-859.183 -5.08317 0
-857.594 -4.98013 0
-856.003 -4.87633 0
-854.411 -4.77308 0
-852.817 -4.66763 0
-851.221 -4.56223 0
-849.625 -4.45816 0
-848.027 -4.35233 0
-846.429 -4.24953 0
-844.829 -4.14532 0
-843.228 -4.04292 0
-841.627 -3.94202 0
-840.023 -3.84449 0
-838.42 -3.74823 0
-836.813 -3.65524 0
-835.206 -3.5609 0
-833.6 -3.46934 0
-831.992 -3.37804 0
-830.384 -3.29123 0
-828.775 -3.20883 0
-827.167 -3.12653 0
-825.556 -3.04841 0
-823.944 -2.97076 0
-822.333 -2.8992 0
-820.722 -2.8268 0
-819.108 -2.75929 0
-817.495 -2.69592 0
-815.879 -2.63461 0
-814.264 -2.57868 0
-812.649 -2.52448 0
-811.034 -2.4726 0
-809.419 -2.42353 0
-807.805 -2.37729 0
-806.192 -2.33502 0
-804.577 -2.29641 0
-802.963 -2.26012 0
-801.348 -2.23025 0
-799.733 -2.20011 0
-798.116 -2.1754 0
-796.502 -2.15142 0
-794.887 -2.13107 0
-793.274 -2.11271 0
-791.659 -2.09726 0
-790.047 -2.08411 0
-788.433 -2.07636 0
-786.819 -2.07205 0
-785.203 -2.0649 0
-783.591 -2.06322 0
-781.977 -2.06454 0
-780.364 -2.06925 0
-778.75 -2.07262 0
-777.138 -2.08104 0
-775.526 -2.08906 0
-773.914 -2.10539 0
-772.304 -2.11638 0
-770.695 -2.13077 0
-769.085 -2.14903 0
-767.478 -2.16823 0
-765.867 -2.18885 0
-764.258 -2.21312 0
-762.65 -2.23704 0
-761.041 -2.26329 0
-759.433 -2.29003 0
-757.827 -2.31704 0
-756.22 -2.34541 0
-754.614 -2.37449 0
-753.01 -2.40018 0
-751.406 -2.43354 0
-749.803 -2.46817 0
-748.196 -2.49973 0
-746.59 -2.52967 0
-744.986 -2.56182 0
-743.384 -2.59535 0
-741.78 -2.63035 0
-740.18 -2.66349 0
-738.575 -2.69784 0
-736.977 -2.73003 0
-735.375 -2.76298 0
-733.775 -2.79518 0
-732.176 -2.82975 0
-730.574 -2.86453 0
-728.974 -2.89636 0
-727.376 -2.92903 0
-725.776 -2.96257 0
-724.178 -2.99648 0
-722.581 -3.03008 0
-720.983 -3.05986 0
-719.387 -3.08966 0
-717.789 -3.12126 0
-716.191 -3.1493 0
-714.596 -3.17779 0
-713 -3.20581 0
-711.404 -3.23336 0
-709.805 -3.26273 0
-708.207 -3.28799 0
-706.613 -3.31066 0
-705.016 -3.33434 0
-703.422 -3.36035 0
-701.826 -3.37984 0
-700.232 -3.4038 0
-698.635 -3.42261 0
-697.04 -3.44054 0
-695.447 -3.4581 0
-693.852 -3.47397 0
-692.256 -3.49047 0
-690.66 -3.50536 0
-689.069 -3.52005 0
-687.476 -3.53056 0
-685.88 -3.54389 0
-684.283 -3.55791 0
-682.688 -3.56527 0
-681.092 -3.57259 0
-679.499 -3.57912 0
-677.905 -3.58903 0
-676.309 -3.59531 0
-674.713 -3.60129 0
-673.117 -3.60394 0
-671.521 -3.61075 0
-669.927 -3.61589 0
-668.333 -3.61893 0
-666.739 -3.61747 0
-665.143 -3.61966 0
-663.55 -3.61894 0
-661.955 -3.61747 0
-660.355 -3.61663 0
-658.759 -3.61367 0
-657.161 -3.61262 0
-655.567 -3.60964 0
-653.971 -3.60675 0
-652.376 -3.60288 0
-650.781 -3.59734 0
-649.186 -3.59235 0
-647.59 -3.58231 0
-645.994 -3.57166 0
-644.394 -3.56666 0
-642.798 -3.56033 0
-641.198 -3.55046 0
-639.601 -3.5428 0
-638.004 -3.53552 0
-636.409 -3.53062 0
-634.81 -3.52089 0
-633.212 -3.50984 0
-631.615 -3.49908 0
-630.016 -3.48721 0
-628.419 -3.47763 0
-626.818 -3.46529 0
-625.221 -3.45473 0
-623.621 -3.44251 0
-622.023 -3.43215 0
-620.425 -3.42113 0
-618.827 -3.40748 0
-617.227 -3.39421 0
-615.629 -3.38211 0
-614.031 -3.37281 0
-612.431 -3.3602 0
-610.831 -3.34588 0
-609.229 -3.33486 0
-607.631 -3.32333 0
-606.035 -3.31228 0
-604.432 -3.29919 0
-602.833 -3.28671 0
-601.234 -3.27374 0
-599.634 -3.264 0
-598.033 -3.25239 0
-596.432 -3.24211 0
-594.831 -3.23245 0
-593.23 -3.22359 0
-591.629 -3.21471 0
-590.03 -3.20814 0
-588.43 -3.20053 0
-586.829 -3.19214 0
-585.226 -3.18245 0
-583.624 -3.17456 0
-582.025 -3.16299 0
-580.425 -3.15518 0
-578.825 -3.14877 0
-577.226 -3.14351 0
-575.622 -3.13403 0
-574.02 -3.12647 0
-572.419 -3.11983 0
-570.817 -3.11392 0
-569.213 -3.1085 0
-567.613 -3.10533 0
-566.012 -3.09741 0
-564.411 -3.09444 0
-562.813 -3.08866 0
-561.215 -3.08 0
-559.614 -3.07571 0
-558.013 -3.0717 0
-556.413 -3.06675 0
-554.81 -3.06271 0
-553.208 -3.05841 0
-551.608 -3.05347 0
-550.004 -3.05383 0
-548.404 -3.04794 0
-546.804 -3.04857 0
-545.202 -3.04645 0
-543.603 -3.04377 0
-542 -3.04355 0
-540.397 -3.04232 0
-538.796 -3.03968 0
-537.194 -3.04005 0
-535.594 -3.04091 0
-533.995 -3.03756 0
-532.396 -3.04072 0
-530.795 -3.04322 0
-529.194 -3.04182 0
-527.593 -3.04524 0
-525.991 -3.04494 0
-524.389 -3.0446 0
-522.79 -3.04644 0
-521.189 -3.05119 0
-519.588 -3.0486 0
-517.99 -3.0527 0
-516.39 -3.05576 0
-514.785 -3.05279 0
-513.189 -3.05672 0
-511.588 -3.05978 0
-509.989 -3.05947 0
-508.387 -3.06141 0
-506.788 -3.06668 0
-505.189 -3.07139 0
-503.59 -3.0729 0
-501.99 -3.07518 0
-500.389 -3.07878 0
-498.789 -3.08364 0
-497.191 -3.08385 0
-495.588 -3.08963 0
-493.987 -3.09029 0
-492.387 -3.09822 0
-490.787 -3.099 0
-489.187 -3.09785 0
-487.588 -3.10437 0
-485.989 -3.11025 0
-484.391 -3.11228 0
-482.793 -3.11669 0
-481.196 -3.12095 0
-479.594 -3.12305 0
-477.996 -3.12836 0
-476.398 -3.13339 0
-474.798 -3.13785 0
-473.199 -3.13918 0
-471.6 -3.14313 0
-470.001 -3.14619 0
-468.405 -3.15101 0
-466.806 -3.1535 0
-465.204 -3.15457 0
-463.601 -3.15945 0
-462.004 -3.16051 0
-460.409 -3.16251 0
-458.809 -3.16627 0
-457.208 -3.1707 0
-455.608 -3.17344 0
-454.008 -3.17716 0
-452.409 -3.17982 0
-450.809 -3.17969 0
-449.21 -3.18492 0
-447.612 -3.18288 0
-446.017 -3.18559 0
-444.416 -3.18776 0
-442.819 -3.18728 0
-441.217 -3.18913 0
-439.616 -3.19228 0
-438.018 -3.19558 0
-436.421 -3.19761 0
-434.82 -3.19973 0
-433.222 -3.20278 0
-431.624 -3.20366 0
-430.027 -3.20499 0
-428.429 -3.20688 0
-426.83 -3.21003 0
-425.232 -3.2122 0
-423.634 -3.21363 0
-422.033 -3.21683 0
-420.433 -3.21037 0
-418.834 -3.21431 0
-417.235 -3.21379 0
-415.636 -3.21706 0
-414.039 -3.22018 0
-412.439 -3.21839 0
-410.841 -3.22102 0
-409.241 -3.21597 0
-407.643 -3.21689 0
-406.043 -3.2125 0
-404.44 -3.2141 0
-402.844 -3.21408 0
-401.247 -3.21729 0
-399.649 -3.21574 0
-398.05 -3.21268 0
-396.452 -3.21229 0
-394.852 -3.21237 0
-393.255 -3.21588 0
-391.656 -3.21291 0
-390.055 -3.21201 0
-388.459 -3.2114 0
-386.86 -3.21185 0
-385.255 -3.21119 0
-383.661 -3.2104 0
-382.063 -3.21261 0
-380.463 -3.20932 0
-378.864 -3.20832 0
-377.266 -3.20341 0
-375.669 -3.20213 0
-374.07 -3.20074 0
-372.469 -3.20275 0
-370.87 -3.20577 0
-369.274 -3.20663 0
-367.675 -3.20619 0
-366.076 -3.20721 0
-364.476 -3.20242 0
-362.879 -3.19408 0
-361.282 -3.19596 0
-359.686 -3.19352 0
-358.087 -3.19608 0
-356.485 -3.19243 0
-354.884 -3.19118 0
-353.287 -3.19533 0
-351.69 -3.19132 0
-350.092 -3.18773 0
-348.492 -3.18557 0
-346.893 -3.18853 0
-345.294 -3.18493 0
-343.695 -3.1822 0
-342.095 -3.18158 0
-340.498 -3.1784 0
-338.895 -3.17671 0
-337.294 -3.17511 0
-335.698 -3.17511 0
-334.097 -3.17559 0
-332.5 -3.17825 0
-330.901 -3.17647 0
-329.3 -3.17756 0
-327.7 -3.17305 0
-326.1 -3.1728 0
-324.501 -3.17343 0
-322.905 -3.16976 0
-321.31 -3.16958 0
-319.711 -3.1724 0
-318.111 -3.16596 0
-316.511 -3.16399 0
-314.913 -3.16271 0
-313.316 -3.16135 0
-311.716 -3.16028 0
-310.117 -3.158 0
-308.517 -3.15722 0
-306.915 -3.15839 0
-305.316 -3.15433 0
-303.718 -3.15612 0
-302.12 -3.15202 0
-300.52 -3.1486 0
-298.921 -3.15079 0
-297.323 -3.1524 0
-295.722 -3.15677 0
-294.122 -3.15276 0
-292.528 -3.15439 0
-290.923 -3.16005 0
-289.322 -3.15849 0
-287.724 -3.15531 0
-286.128 -3.15302 0
-284.528 -3.15172 0
-282.927 -3.15134 0
-281.325 -3.14765 0
-279.728 -3.1485 0
-278.127 -3.14436 0
-276.53 -3.14752 0
-274.931 -3.14806 0
-273.334 -3.14617 0
-271.733 -3.14986 0
-270.136 -3.15617 0
-268.537 -3.15421 0
-266.936 -3.14974 0
-265.34 -3.14605 0
-263.741 -3.14512 0
-262.141 -3.14665 0
-260.542 -3.14441 0
-258.947 -3.14473 0
-257.348 -3.15304 0
-255.747 -3.15367 0
-254.146 -3.1463 0
-252.545 -3.14026 0
-250.945 -3.14411 0
-249.347 -3.14375 0
-247.748 -3.14322 0
-246.151 -3.14411 0
-244.555 -3.14414 0
-242.955 -3.14714 0
-241.355 -3.14208 0
-239.757 -3.13978 0
-238.158 -3.14219 0
-236.56 -3.14725 0
-234.962 -3.14642 0
-233.363 -3.15202 0
-231.766 -3.15119 0
-230.165 -3.14875 0
-228.568 -3.14362 0
-226.968 -3.14621 0
-225.37 -3.1436 0
-223.774 -3.14637 0
-222.174 -3.14933 0
-220.573 -3.15239 0
-218.975 -3.15281 0
-217.379 -3.15186 0
-215.781 -3.14967 0
-214.185 -3.15102 0
-212.582 -3.15225 0
-210.982 -3.15109 0
-209.382 -3.15358 0
-207.784 -3.15149 0
-206.189 -3.15215 0
-204.589 -3.15243 0
-202.993 -3.15319 0
-201.394 -3.15501 0
-199.794 -3.15311 0
-198.195 -3.1561 0
-196.6 -3.14955 0
-195 -3.15427 0
-193.4 -3.15306 0
-191.801 -3.15075 0
-190.203 -3.15231 0
-188.605 -3.15079 0
-187.008 -3.15473 0
-185.409 -3.15866 0
-183.807 -3.15469 0
-182.208 -3.15209 0
-180.613 -3.1542 0
-179.016 -3.15675 0
-177.416 -3.15494 0
-175.815 -3.15416 0
-174.216 -3.15731 0
-172.617 -3.15693 0
-171.022 -3.15842 0
-169.424 -3.15914 0
-167.826 -3.1612 0
-166.228 -3.1563 0
-164.63 -3.16454 0
-163.032 -3.1606 0
-161.431 -3.15915 0
-159.83 -3.1574 0
-158.234 -3.15735 0
-156.635 -3.16193 0
-155.034 -3.15341 0
-153.435 -3.15924 0
-151.839 -3.16052 0
-150.24 -3.16196 0
-148.644 -3.16153 0
-147.041 -3.16118 0
-145.442 -3.15995 0
-143.842 -3.15509 0
-142.245 -3.15732 0
-140.648 -3.15433 0
-139.049 -3.15573 0
-137.449 -3.15482 0
-135.849 -3.15437 0
-134.252 -3.15654 0
-132.656 -3.15733 0
-131.059 -3.15794 0
-129.46 -3.15763 0
-127.861 -3.1586 0
-126.263 -3.15622 0
-124.663 -3.15322 0
-123.066 -3.15686 0
-121.467 -3.15716 0
-119.865 -3.15685 0
-118.268 -3.15902 0
-116.67 -3.15964 0
-115.072 -3.16058 0
-113.472 -3.15775 0
-111.874 -3.15603 0
-110.276 -3.15896 0
-108.679 -3.16091 0
-107.077 -3.16072 0
-105.474 -3.15658 0
-103.877 -3.16053 0
-102.28 -3.1583 0
-100.682 -3.15644 0
-99.0868 -3.15693 0
-97.4916 -3.15785 0
-95.8955 -3.16007 0
-94.2954 -3.16151 0
-92.6962 -3.16092 0
-91.0974 -3.15679 0
-89.5002 -3.15821 0
-87.9017 -3.15885 0
-86.3026 -3.15976 0
-84.704 -3.15883 0
-83.1063 -3.15932 0
-81.5077 -3.15948 0
-79.9076 -3.15756 0
-78.3084 -3.16001 0
-76.7134 -3.16032 0
-75.1154 -3.1585 0
-73.5183 -3.15721 0
-71.9191 -3.16188 0
-70.3193 -3.16158 0
-68.7199 -3.16007 0
-67.1213 -3.15645 0
-65.5253 -3.15693 0
-63.9291 -3.1577 0
-62.329 -3.15718 0
-60.7321 -3.15889 0
-59.135 -3.15916 0
-57.535 -3.15987 0
-55.9377 -3.16045 0
-54.3386 -3.16029 0
-52.74 -3.16193 0
-51.1401 -3.16149 0
-49.5429 -3.16 0
-47.9449 -3.15872 0
-46.3479 -3.15961 0
-44.7489 -3.15931 0
-43.1519 -3.15694 0
-41.5537 -3.15739 0
-39.9533 -3.15845 0
-38.3575 -3.15853 0
-36.7615 -3.15682 0
-35.1598 -3.15636 0
-33.5602 -3.15628 0
-31.9609 -3.15941 0
-30.3637 -3.15583 0
-28.7661 -3.15666 0
-27.1676 -3.15956 0
-25.5676 -3.15249 0
-23.9689 -3.15679 0
-22.369 -3.15523 0
-20.7717 -3.15492 0
-19.1768 -3.15717 0
-17.5812 -3.15617 0
-15.9815 -3.15886 0
-14.3789 -3.15835 0
-12.782 -3.15853 0
-11.1849 -3.16052 0
-9.58914 -3.16072 0
-7.99364 -3.15942 0
-6.39422 -3.16128 0
-4.79365 -3.16203 0
-3.19552 -3.16261 0
-1.59621 -3.15804 0
0 -3.15736 0
-1079.84 94.0671 0
-1079.78 84.2244 0
-1079.88 74.7565 0
-1079.93 65.5274 0
-1079.91 56.5677 0
-1079.79 47.9253 0
-1079.59 39.6773 0
-1079.31 31.8864 0
-1078.96 24.6082 0
-1078.55 17.8722 0
-1078.08 11.6986 0
-1077.56 6.09541 0
-1077.03 1.04066 0
-1076.56 -3.57136 0
-1076.15 -7.81331 0
-1075.77 -11.7089 0
-1075.35 -15.2821 0
-1074.87 -18.4975 0
-1074.35 -21.3361 0
-1073.81 -23.7863 0
-1073.25 -25.8543 0
-1072.67 -27.553 0
-1072.08 -28.9028 0
-1071.48 -29.9255 0
-1070.86 -30.6519 0
-1070.22 -31.1057 0
-1069.56 -31.3201 0
-1068.86 -31.3196 0
-1068.13 -31.1266 0
-1067.36 -30.7648 0
-1066.56 -30.2504 0
-1065.71 -29.602 0
-1064.82 -28.8372 0
-1063.89 -27.9695 0
-1062.93 -27.014 0
-1061.92 -25.9836 0
-1060.86 -24.8874 0
-1059.77 -23.7405 0
-1058.64 -22.5519 0
-1057.48 -21.3292 0
-1056.27 -20.0834 0
-1055.03 -18.8191 0
-1053.76 -17.5468 0
-1052.45 -16.2723 0
-1051.12 -14.9995 0
-1049.75 -13.739 0
-1048.36 -12.4911 0
-1046.93 -11.2616 0
-1045.48 -10.0546 0
-1044.01 -8.87556 0
-1042.51 -7.72375 0
-1041 -6.60569 0
-1039.46 -5.5216 0
-1037.9 -4.47189 0
-1036.32 -3.46294 0
-1034.73 -2.49281 0
-1033.12 -1.56369 0
-1031.5 -0.677669 0
-1029.86 0.165403 0
-1028.22 0.964552 0
-1026.55 1.71791 0
-1024.89 2.42745 0
-1023.21 3.09109 0
-1021.52 3.71181 0
-1019.82 4.28676 0
-1018.12 4.81748 0
-1016.41 5.30393 0
-1014.7 5.74703 0
-1012.98 6.14784 0
-1011.25 6.50586 0
-1009.53 6.82356 0
-1007.8 7.1007 0
-1006.07 7.33934 0
-1004.34 7.54008 0
-1002.61 7.70264 0
-1000.88 7.82868 0
-999.151 7.9222 0
-997.421 7.98046 0
-995.693 8.00679 0
-993.967 8.00239 0
-992.242 7.96866 0
-990.519 7.90717 0
-988.8 7.81822 0
-987.084 7.70381 0
-985.372 7.56594 0
-983.664 7.40472 0
-981.959 7.22239 0
-980.258 7.02234 0
-978.561 6.80053 0
-976.87 6.56382 0
-975.182 6.31111 0
-973.499 6.04524 0
-971.822 5.76493 0
-970.149 5.47357 0
-968.481 5.17228 0
-966.817 4.86301 0
-965.16 4.54577 0
-963.505 4.22138 0
-961.856 3.89191 0
-960.212 3.55706 0
-958.573 3.22027 0
-956.938 2.88011 0
-955.309 2.54131 0
-953.683 2.2017 0
-952.062 1.86193 0
-950.445 1.52581 0