<?xml version="1.0"?>
<VTKFile type="StructuredGrid"  version="0.1" byte_order="LittleEndian" compressor="vtkZLibDataCompressor">
  <StructuredGrid WholeExtent="0 700 0 30 0 0">
    <Piece Extent="0 700 0 30 0 0">
      <PointData Vectors="Velocity">
        <DataArray type="Float32" Name="Velocity" NumberOfComponents="3" format="ascii">
-1078.44 311.874 0
-1078.59 293.121 0
-1078.78 274.481 0
-1079.03 256.044 0
-1079.3 237.872 0
-1079.62 220.01 0
-1079.99 202.52 0
-1080.4 185.445 0
-1080.86 168.811 0
-1081.34 152.653 0
-1081.85 136.996 0
-1082.37 121.852 0
-1082.89 107.238 0
-1083.41 93.1654 0
-1083.91 79.6352 0
-1084.39 66.6616 0
-1084.85 54.2374 0
-1085.27 42.3521 0
-1085.65 31.0056 0
-1085.97 20.1857 0
-1086.21 9.85727 0
-1086.47 -0.0231413 0
-1086.72 -9.43879 0
-1086.94 -18.4142 0
-1087.16 -26.9512 0
-1087.37 -35.0613 0
-1087.56 -42.7519 0
-1087.74 -50.0316 0
-1087.9 -56.9126 0
-1088.05 -63.4003 0
-1088.17 -69.5044 0
-1088.29 -75.2423 0
-1088.39 -80.6099 0
-1088.46 -85.6154 0
-1088.51 -90.2732 0
-1088.54 -94.5931 0
-1088.54 -98.5756 0
-1088.52 -102.242 0
-1088.46 -105.596 0
-1088.38 -108.645 0
-1088.26 -111.401 0
-1088.12 -113.874 0
-1087.94 -116.074 0
-1087.73 -118.003 0
-1087.48 -119.67 0
-1087.19 -121.096 0
-1086.86 -122.28 0
-1086.5 -123.238 0
-1086.09 -123.968 0
-1085.65 -124.499 0
-1085.17 -124.824 0
-1084.64 -124.951 0
-1084.08 -124.896 0
-1083.48 -124.665 0
-1082.84 -124.261 0
-1082.16 -123.706 0
-1081.44 -122.996 0
-1080.67 -122.141 0
-1079.87 -121.151 0
-1079.03 -120.031 0
-1078.16 -118.786 0
-1077.24 -117.433 0
-1076.29 -115.972 0
-1075.3 -114.406 0
-1074.28 -112.747 0
-1073.21 -110.997 0
-1072.12 -109.163 0
-1070.99 -107.251 0
-1069.83 -105.274 0
-1068.63 -103.223 0
-1067.4 -101.118 0
-1066.14 -98.9581 0
-1064.86 -96.7447 0
-1063.54 -94.4878 0
-1062.19 -92.1856 0
-1060.82 -89.8471 0
-1059.42 -87.476 0
-1057.99 -85.0769 0
-1056.53 -82.6519 0
-1055.05 -80.2079 0
-1053.54 -77.7454 0
-1052.01 -75.2764 0
-1050.46 -72.7859 0
-1048.88 -70.2904 0
-1047.28 -67.7926 0
-1045.66 -65.2965 0
-1044.02 -62.8034 0
-1042.36 -60.3078 0
-1040.68 -57.823 0
-1038.99 -55.3472 0
-1037.27 -52.8822 0
-1035.54 -50.4388 0
-1033.79 -48.0076 0
-1032.03 -45.6008 0
-1030.25 -43.2061 0
-1028.46 -40.8321 0
-1026.66 -38.4869 0
-1024.84 -36.1682 0
-1023.01 -33.8771 0
-1021.17 -31.609 0
-1019.32 -29.3755 0
-1017.46 -27.1759 0
-1015.58 -25.0002 0
-1013.7 -22.8682 0
-1011.8 -20.7704 0
-1009.9 -18.7097 0
-1007.99 -16.6827 0
-1006.08 -14.6952 0
-1004.16 -12.7432 0
-1002.22 -10.8354 0
-1000.29 -8.96054 0
-998.348 -7.12799 0
-996.395 -5.33854 0
-994.443 -3.59257 0
-992.486 -1.88365 0
-990.525 -0.220431 0
-988.56 1.41163 0
-986.587 2.98451 0
-984.614 4.51818 0
-982.642 6.00822 0
-980.667 7.45376 0
-978.688 8.85899 0
-976.704 10.2115 0
-974.72 11.5275 0
-972.737 12.7964 0
-970.754 14.0179 0
-968.771 15.1951 0
-966.783 16.3327 0
-964.795 17.4246 0
-962.805 18.4718 0
-960.824 19.4734 0
-958.84 20.4284 0
-956.86 21.3456 0
-954.878 22.2163 0
-952.896 23.0479 0
-950.918 23.8366 0
-948.942 24.583 0
-946.965 25.2892 0
-944.998 25.946 0
-943.032 26.5678 0
-941.065 27.1432 0
-939.102 27.6804 0
-937.14 28.1788 0
-935.183 28.6404 0
-933.232 29.0615 0
-931.285 29.4448 0
-929.342 29.7969 0
-927.397 30.107 0
-925.456 30.3767 0
-923.525 30.6155 0
-921.6 30.8141 0
-919.677 30.9839 0
-917.759 31.123 0
-915.844 31.2206 0
-913.93 31.2923 0
-912.024 31.3251 0
-910.12 31.3305 0
-908.228 31.3026 0
-906.339 31.244 0
-904.453 31.1591 0
-902.577 31.0463 0
-900.7 30.9039 0
-898.835 30.7292 0
-896.974 30.5357 0
-895.119 30.3143 0
-893.266 30.07 0
-891.415 29.802 0
-889.569 29.5062 0
-887.731 29.1876 0
-885.901 28.8452 0
-884.078 28.4883 0
-882.26 28.1094 0
-880.446 27.7094 0
-878.633 27.2945 0
-876.833 26.8533 0
-875.032 26.3945 0
-873.239 25.9242 0
-871.451 25.438 0
-869.667 24.9351 0
-867.889 24.4157 0
-866.114 23.8848 0
-864.346 23.3356 0
-862.586 22.7722 0
-860.835 22.2075 0
-859.084 21.6331 0
-857.337 21.0486 0
-855.594 20.4525 0
-853.857 19.8426 0
-852.126 19.2247 0
-850.397 18.5997 0
-848.678 17.9688 0
-846.961 17.3369 0
-845.248 16.695 0
-843.541 16.0458 0
-841.834 15.3974 0
-840.132 14.7458 0
-838.43 14.0888 0
-836.737 13.429 0
-835.048 12.7598 0
-833.366 12.0933 0
-831.685 11.4282 0
-830.011 10.7651 0
-828.339 10.0991 0
-826.671 9.43457 0
-825.003 8.77704 0
-823.342 8.11652 0
-821.679 7.45737 0
-820.024 6.80168 0
-818.369 6.14609 0
-816.721 5.49714 0
-815.075 4.85487 0
-813.432 4.2112 0
-811.793 3.57403 0
-810.156 2.94181 0
-808.518 2.31538 0
-806.882 1.69264 0
-805.253 1.08266 0
-803.623 0.473792 0
-801.995 -0.126648 0
-800.367 -0.720894 0
-798.748 -1.30267 0
-797.127 -1.88133 0
-795.511 -2.45074 0
-793.897 -3.01171 0
-792.283 -3.56472 0
-790.668 -4.10819 0
-789.058 -4.63826 0
-787.447 -5.16317 0
-785.838 -5.67478 0
-784.232 -6.17106 0
-782.623 -6.67124 0
-781.017 -7.15542 0
-779.415 -7.63104 0
-777.812 -8.09362 0
-776.21 -8.54907 0
-774.61 -8.99018 0
-773.012 -9.4212 0
-771.411 -9.83786 0
-769.813 -10.2451 0
-768.217 -10.6449 0
-766.618 -11.0337 0
-765.023 -11.4105 0
-763.424 -11.7753 0
-761.828 -12.1323 0
-760.232 -12.4692 0
-758.634 -12.8013 0
-757.04 -13.1249 0
-755.439 -13.4342 0
-753.845 -13.7354 0
-752.251 -14.0175 0
-750.656 -14.2937 0
-749.063 -14.5535 0
-747.465 -14.8023 0
-745.871 -15.0435 0
-744.271 -15.2756 0
-742.671 -15.496 0
-741.077 -15.7007 0
-739.479 -15.8958 0
-737.88 -16.083 0
-736.279 -16.2522 0
-734.682 -16.4146 0
-733.084 -16.569 0
-731.483 -16.7108 0
-729.882 -16.8427 0
-728.279 -16.9622 0
-726.677 -17.0715 0
-725.077 -17.1693 0
-723.473 -17.2555 0
-721.864 -17.3383 0
-720.255 -17.4059 0
-718.648 -17.4733 0
-717.038 -17.5208 0
-715.425 -17.5687 0
-713.818 -17.6039 0
-712.209 -17.6259 0
-710.593 -17.6331 0
-708.977 -17.6419 0
-707.364 -17.641 0
-705.747 -17.6292 0
-704.127 -17.6064 0
-702.514 -17.5833 0
-700.894 -17.5432 0
-699.273 -17.5037 0
-697.649 -17.4565 0
-696.025 -17.3974 0
-694.404 -17.3373 0
-692.78 -17.2648 0
-691.156 -17.1853 0
-689.527 -17.0963 0
-687.897 -17.0067 0
-686.268 -16.9063 0
-684.638 -16.8014 0
-683.006 -16.689 0
-681.373 -16.5751 0
-679.741 -16.4478 0
-678.104 -16.3204 0
-676.462 -16.1922 0
-674.824 -16.0537 0
-673.181 -15.9207 0
-671.54 -15.7713 0
-669.9 -15.6175 0
-668.253 -15.4648 0
-666.611 -15.3015 0
-664.967 -15.1363 0
-663.317 -14.9688 0
-661.668 -14.8004 0
-660.019 -14.6206 0
-658.366 -14.4408 0
-656.712 -14.2693 0
-655.062 -14.0842 0
-653.406 -13.9026 0
-651.747 -13.7046 0
-650.092 -13.5109 0
-648.435 -13.3207 0
-646.776 -13.1245 0
-645.115 -12.9258 0
-643.453 -12.7246 0
-641.792 -12.5202 0
-640.123 -12.3131 0
-638.461 -12.119 0
-636.797 -11.9105 0
-635.118 -11.7063 0
-633.449 -11.5053 0
-631.786 -11.2951 0
-630.114 -11.0833 0
-628.443 -10.8733 0
-626.768 -10.666 0
-625.102 -10.4539 0
-623.428 -10.2517 0
-621.751 -10.0452 0
-620.077 -9.83223 0
-618.401 -9.63024 0
-616.722 -9.42339 0
-615.045 -9.21353 0
-613.365 -9.00352 0
-611.686 -8.80058 0
-610.004 -8.60041 0
-608.33 -8.3945 0
-606.646 -8.19194 0
-604.96 -7.99078 0
-603.278 -7.79099 0
-601.594 -7.59292 0
-599.908 -7.39914 0
-598.221 -7.20698 0
-596.538 -7.01427 0
-594.846 -6.82522 0
-593.162 -6.63992 0
-591.473 -6.45637 0
-589.782 -6.27034 0
-588.093 -6.08336 0
-586.404 -5.90956 0
-584.721 -5.73081 0
-583.032 -5.55519 0
-581.336 -5.38191 0
-579.65 -5.21323 0
-577.96 -5.0407 0
-576.265 -4.88394 0
-574.573 -4.71845 0
-572.879 -4.56477 0
-571.19 -4.39958 0
-569.497 -4.24031 0
-567.804 -4.08666 0
-566.116 -3.93937 0
-564.418 -3.79958 0
-562.721 -3.65961 0
-561.026 -3.51534 0
-559.338 -3.37954 0
-557.641 -3.24585 0
-555.946 -3.11408 0
-554.247 -2.99073 0
-552.553 -2.85941 0
-550.853 -2.74448 0
-549.162 -2.63164 0
-547.465 -2.52281 0
-545.772 -2.41315 0
-544.077 -2.30317 0
-542.375 -2.20484 0
-540.689 -2.10343 0
-538.993 -2.01026 0
-537.299 -1.90453 0
-535.6 -1.8095 0
-533.894 -1.72217 0
-532.199 -1.6433 0
-530.504 -1.56442 0
-528.813 -1.48542 0
-527.116 -1.41202 0
-525.425 -1.35103 0
-523.728 -1.28066 0
-522.034 -1.21711 0
-520.337 -1.15849 0
-518.647 -1.10663 0
-516.947 -1.049 0
-515.249 -0.994396 0
-513.561 -0.951042 0
-511.869 -0.906361 0
-510.17 -0.861843 0
-508.475 -0.828039 0
-506.787 -0.791147 0
-505.091 -0.756457 0
-503.397 -0.732976 0
-501.7 -0.709094 0
-500.009 -0.680287 0
-498.319 -0.66439 0
-496.627 -0.635201 0
-494.936 -0.62698 0
-493.245 -0.618166 0
-491.557 -0.603152 0
-489.859 -0.60741 0
-488.168 -0.601269 0
-486.473 -0.597782 0
-484.784 -0.608497 0
-483.098 -0.605493 0
-481.406 -0.621012 0
-479.723 -0.628802 0
-478.041 -0.645965 0
-476.345 -0.653916 0
-474.658 -0.679218 0
-472.971 -0.70035 0
-471.285 -0.720986 0
-469.589 -0.750252 0
-467.899 -0.774933 0
-466.213 -0.801944 0
-464.523 -0.840421 0
-462.838 -0.877299 0
-461.147 -0.913601 0
-459.462 -0.963712 0
-457.775 -1.00789 0
-456.093 -1.0401 0
-454.403 -1.08982 0
-452.716 -1.14023 0
-451.031 -1.18514 0
-449.352 -1.23564 0
-447.663 -1.28415 0
-445.985 -1.33906 0
-444.3 -1.40214 0
-442.62 -1.45213 0
-440.941 -1.51364 0
-439.26 -1.57063 0
-437.585 -1.63231 0
-435.9 -1.69501 0
-434.219 -1.76061 0
-432.538 -1.83403 0
-430.856 -1.89316 0
-429.176 -1.96815 0
-427.494 -2.03328 0
-425.825 -2.1098 0
-424.144 -2.16941 0
-422.454 -2.24327 0
-420.778 -2.32213 0
-419.095 -2.39776 0
-417.424 -2.47279 0
-415.743 -2.54638 0
-414.065 -2.61874 0
-412.396 -2.69869 0
-410.709 -2.78501 0
-409.03 -2.85945 0
-407.357 -2.94461 0
-405.682 -3.02677 0
-404.008 -3.11239 0
-402.332 -3.19433 0
-400.66 -3.27886 0
-398.991 -3.35665 0
-397.314 -3.43817 0
-395.638 -3.5242 0
-393.963 -3.60946 0
-392.285 -3.69792 0
-390.611 -3.77939 0
-388.934 -3.86713 0
-387.266 -3.95817 0
-385.592 -4.04912 0
-383.927 -4.13946 0
-382.261 -4.22263 0
-380.59 -4.31015 0
-378.914 -4.39146 0
-377.238 -4.47342 0
-375.572 -4.55569 0
-373.899 -4.64805 0
-372.226 -4.73872 0
-370.555 -4.8246 0
-368.885 -4.91428 0
-367.209 -4.99651 0
-365.546 -5.07301 0
-363.877 -5.1585 0
-362.208 -5.24264 0
-360.553 -5.33016 0
-358.878 -5.41157 0
-357.212 -5.49633 0
-355.539 -5.58052 0
-353.866 -5.65729 0
-352.195 -5.74304 0
-350.526 -5.82317 0
-348.859 -5.90594 0
-347.194 -5.97945 0
-345.534 -6.07078 0
-343.87 -6.13408 0
-342.202 -6.21148 0
-340.535 -6.29002 0
-338.867 -6.35552 0
-337.195 -6.44567 0
-335.523 -6.525 0
-333.864 -6.60265 0
-332.202 -6.67146 0
-330.526 -6.74352 0
-328.861 -6.81911 0
-327.199 -6.88376 0
-325.529 -6.96283 0
-323.869 -7.03162 0
-322.203 -7.09668 0
-320.537 -7.16405 0
-318.871 -7.23231 0
-317.21 -7.29998 0
-315.54 -7.36663 0
-313.885 -7.43489 0
-312.22 -7.49574 0
-310.547 -7.56169 0
-308.884 -7.62139 0
-307.216 -7.67375 0
-305.555 -7.74777 0
-303.892 -7.79732 0
-302.23 -7.84714 0
-300.561 -7.9009 0
-298.901 -7.95287 0
-297.235 -8.0189 0
-295.566 -8.07025 0
-293.897 -8.13471 0
-292.242 -8.1846 0
-290.577 -8.22419 0
-288.913 -8.26835 0
-287.253 -8.32074 0
-285.576 -8.37901 0
-283.915 -8.42143 0
-282.253 -8.47557 0
-280.589 -8.51852 0
-278.921 -8.55481 0
-277.258 -8.59708 0
-275.596 -8.64459 0
-273.941 -8.67564 0
-272.264 -8.72783 0
-270.596 -8.76393 0
-268.927 -8.80081 0
-267.275 -8.83903 0
-265.616 -8.86053 0
-263.951 -8.89718 0
-262.283 -8.93808 0
-260.617 -8.96624 0
-258.951 -8.99347 0
-257.286 -9.03017 0
-255.617 -9.05582 0
-253.948 -9.07799 0
-252.28 -9.10325 0
-250.621 -9.13301 0
-248.96 -9.15938 0
-247.301 -9.16882 0
-245.632 -9.2039 0
-243.968 -9.22348 0
-242.297 -9.25266 0
-240.64 -9.26662 0
-238.97 -9.29017 0
-237.307 -9.30708 0
-235.642 -9.32613 0
-233.972 -9.34064 0
-232.308 -9.35717 0
-230.64 -9.36243 0
-228.976 -9.38812 0
-227.316 -9.40029 0
-225.647 -9.41568 0
-223.982 -9.43511 0
-222.306 -9.43975 0
-220.649 -9.45046 0
-218.98 -9.46109 0
-217.314 -9.45397 0
-215.649 -9.47171 0
-213.983 -9.47465 0
-212.309 -9.47816 0
-210.643 -9.48975 0
-208.976 -9.49199 0
-207.308 -9.49999 0
-205.645 -9.50784 0
-203.98 -9.50456 0
-202.314 -9.49407 0
-200.649 -9.49747 0
-198.981 -9.49795 0
-197.312 -9.49346 0
-195.65 -9.48972 0
-193.99 -9.48679 0
-192.319 -9.48885 0
-190.652 -9.48261 0
-188.984 -9.47013 0
-187.314 -9.46596 0
-185.645 -9.45823 0
-183.976 -9.46186 0
-182.305 -9.44919 0
-180.639 -9.45296 0
-178.97 -9.43887 0
-177.291 -9.42628 0
-175.624 -9.41315 0
-173.957 -9.40392 0
-172.292 -9.39731 0
-170.619 -9.37699 0
-168.951 -9.36782 0
-167.276 -9.36358 0
-165.613 -9.34016 0
-163.938 -9.33608 0
-162.274 -9.32428 0
-160.599 -9.31375 0
-158.932 -9.30284 0
-157.263 -9.28618 0
-155.601 -9.28054 0
-153.929 -9.26009 0
-152.263 -9.25302 0
-150.596 -9.23511 0
-148.924 -9.22041 0
-147.254 -9.20979 0
-145.584 -9.18556 0
-143.916 -9.17069 0
-142.247 -9.15774 0
-140.572 -9.14311 0
-138.896 -9.12374 0
-137.221 -9.10872 0
-135.551 -9.08641 0
-133.889 -9.06772 0
-132.215 -9.05742 0
-130.541 -9.02668 0
-128.871 -9.00226 0
-127.203 -8.98898 0
-125.524 -8.97751 0
-123.85 -8.95664 0
-122.176 -8.95397 0
-120.509 -8.926 0
-118.835 -8.90945 0
-117.172 -8.89378 0
-115.497 -8.86771 0
-113.818 -8.85741 0
-112.147 -8.83911 0
-110.471 -8.81307 0
-108.8 -8.79839 0
-107.131 -8.78349 0
-105.461 -8.76573 0
-103.785 -8.74866 0
-102.109 -8.72659 0
-100.438 -8.70866 0
-98.7645 -8.68508 0
-97.0975 -8.67341 0
-95.4289 -8.66327 0
-93.7633 -8.64188 0
-92.0845 -8.62367 0
-90.4118 -8.60214 0
-88.7333 -8.5913 0
-87.0613 -8.56673 0
-85.3861 -8.55132 0
-83.7142 -8.53698 0
-82.0381 -8.52336 0
-80.3677 -8.50342 0
-78.6925 -8.49054 0
-77.0169 -8.47657 0
-75.3434 -8.47186 0
-73.6741 -8.44636 0
-71.9925 -8.43128 0
-70.3192 -8.41063 0
-68.6499 -8.3898 0
-66.9791 -8.37523 0
-65.3084 -8.363 0
-63.6348 -8.35078 0
-61.9601 -8.33461 0
-60.2856 -8.32871 0
-58.6105 -8.31643 0
-56.9343 -8.29748 0
-55.2612 -8.2862 0
-53.5821 -8.276 0
-51.9107 -8.25967 0
-50.2432 -8.25144 0
-48.57 -8.246 0
-46.8968 -8.22482 0
-45.2177 -8.22739 0
-43.5337 -8.21925 0
-41.8615 -8.20952 0
-40.1857 -8.19937 0
-38.5127 -8.18656 0
-36.833 -8.17132 0
-35.1583 -8.15698 0
-33.4869 -8.15228 0
-31.8147 -8.15149 0
-30.1404 -8.15278 0
-28.4711 -8.146 0
-26.798 -8.14089 0
-25.119 -8.12981 0
-23.4432 -8.12127 0
-21.7713 -8.11687 0
-20.0941 -8.10936 0
-18.4206 -8.10277 0
-16.7411 -8.09308 0
-15.0673 -8.08973 0
-13.3974 -8.08597 0
-11.7127 -8.09912 0
-10.0394 -8.1019 0
-8.36732 -8.0934 0
-6.69161 -8.08744 0
-5.01696 -8.09556 0
-3.34425 -8.09074 0
-1.67087 -8.09601 0
0 -8.09594 0
-1097.2 312.043 0
-1097.24 293.253 0
-1097.28 274.595 0
-1097.3 256.14 0
-1097.31 237.952 0
-1097.3 220.067 0
-1097.29 202.546 0
-1097.27 185.439 0
-1097.27 168.774 0
-1097.26 152.591 0
-1097.26 136.918 0
-1097.25 121.762 0
-1097.24 107.143 0
-1097.2 93.0733 0
-1097.15 79.5527 0
-1097.08 66.5949 0
-1096.97 54.1902 0
-1096.85 42.3252 0
-1096.69 31.007 0
-1096.51 20.2144 0
-1096.34 9.89191 0
-1096.14 0.00601541 0
-1095.94 -9.39903 0
-1095.73 -18.3747 0
-1095.52 -26.912 0
-1095.3 -35.0195 0
-1095.08 -42.7086 0
-1094.85 -49.984 0
-1094.62 -56.8569 0
-1094.38 -63.3392 0
-1094.13 -69.4379 0
-1093.87 -75.1636 0
-1093.6 -80.5201 0
-1093.32 -85.5129 0
-1093.03 -90.1532 0
-1092.72 -94.4576 0
-1092.4 -98.4251 0
-1092.06 -102.067 0
-1091.69 -105.397 0
-1091.31 -108.424 0
-1090.9 -111.152 0
-1090.48 -113.599 0
-1090.03 -115.771 0
-1089.55 -117.671 0
-1089.04 -119.305 0
-1088.51 -120.696 0
-1087.95 -121.849 0
-1087.36 -122.767 0
-1086.74 -123.472 0
-1086.09 -123.962 0
-1085.41 -124.251 0
-1084.7 -124.343 0
-1083.95 -124.253 0
-1083.18 -123.983 0
-1082.37 -123.547 0
-1081.53 -122.956 0
-1080.66 -122.208 0
-1079.76 -121.317 0
-1078.83 -120.292 0
-1077.86 -119.135 0
-1076.87 -117.857 0
-1075.84 -116.467 0
-1074.79 -114.972 0
-1073.7 -113.372 0
-1072.58 -111.677 0
-1071.43 -109.899 0
-1070.26 -108.034 0
-1069.05 -106.092 0
-1067.82 -104.079 0
-1066.56 -102 0
-1065.28 -99.8669 0
-1063.97 -97.6742 0
-1062.63 -95.4339 0
-1061.27 -93.1491 0
-1059.88 -90.8202 0
-1058.47 -88.46 0
-1057.04 -86.0587 0
-1055.58 -83.6351 0
-1054.1 -81.1875 0
-1052.6 -78.7188 0
-1051.08 -76.2354 0
-1049.54 -73.7381 0
-1047.97 -71.2289 0
-1046.39 -68.714 0
-1044.79 -66.1961 0
-1043.17 -63.6771 0
-1041.53 -61.1657 0
-1039.88 -58.653 0
-1038.21 -56.1501 0
-1036.52 -53.6572 0
-1034.82 -51.1807 0
-1033.11 -48.7162 0
-1031.38 -46.2708 0
-1029.63 -43.8452 0
-1027.88 -41.4386 0
-1026.11 -39.0554 0
-1024.33 -36.6935 0
-1022.54 -34.3643 0
-1020.73 -32.0573 0
-1018.92 -29.7859 0
-1017.1 -27.539 0
-1015.27 -25.3279 0
-1013.43 -23.1458 0
-1011.59 -21.002 0
-1009.73 -18.897 0
-1007.86 -16.8259 0
-1005.99 -14.7928 0
-1004.11 -12.7968 0
-1002.23 -10.8391 0
-1000.34 -8.92492 0
-998.441 -7.0444 0
-996.538 -5.2062 0
-994.634 -3.41149 0
-992.721 -1.65919 0
-990.807 0.0518361 0
-988.886 1.71859 0
-986.962 3.35452 0
-985.037 4.93582 0
-983.107 6.4678 0
-981.178 7.95927 0
-979.245 9.41037 0
-977.312 10.8122 0
-975.376 12.1701 0
-973.435 13.4878 0
-971.497 14.7556 0
-969.556 15.9797 0
-967.614 17.1601 0
-965.671 18.3002 0
-963.727 19.3903 0
-961.787 20.4362 0
-959.845 21.4349 0
-957.904 22.3897 0
-955.965 23.3091 0
-954.027 24.1776 0
-952.091 25.007 0
-950.154 25.7932 0
-948.219 26.5361 0
-946.29 27.2413 0
-944.36 27.8962 0
-942.43 28.515 0
-940.504 29.0906 0
-938.583 29.6231 0
-936.664 30.119 0
-934.743 30.577 0
-932.833 30.9931 0
-930.919 31.3751 0
-929.01 31.7226 0
-927.104 32.03 0
-925.202 32.2974 0
-923.305 32.5274 0
-921.413 32.7228 0
-919.524 32.8896 0
-917.638 33.0244 0
-915.756 33.1191 0
-913.88 33.1862 0
-912.004 33.2149 0
-910.136 33.2134 0
-908.27 33.1846 0
-906.411 33.1207 0
-904.554 33.0289 0
-902.705 32.9112 0
-900.859 32.7643 0
-899.018 32.5852 0
-897.182 32.3863 0
-895.35 32.1586 0
-893.519 31.9107 0
-891.697 31.6367 0
-889.877 31.3347 0
-888.064 31.0118 0
-886.253 30.6649 0
-884.448 30.3032 0
-882.648 29.92 0
-880.852 29.516 0
-879.062 29.0925 0
-877.276 28.6482 0
-875.494 28.1878 0
-873.718 27.7126 0
-871.945 27.2202 0
-870.176 26.7107 0
-868.412 26.1895 0
-866.652 25.6513 0
-864.899 25.0964 0
-863.151 24.532 0
-861.406 23.9601 0
-859.665 23.3799 0
-857.929 22.7908 0
-856.195 22.19 0
-854.468 21.5766 0
-852.745 20.9564 0
-851.023 20.3266 0
-849.309 19.6877 0
-847.596 19.0511 0
-845.89 18.4071 0
-844.187 17.7554 0
-842.483 17.1062 0
-840.786 16.4485 0
-839.091 15.7886 0
-837.4 15.1234 0
-835.715 14.4511 0
-834.03 13.7796 0
-832.348 13.1104 0
-830.672 12.4409 0
-829.002 11.7728 0
-827.328 11.107 0
-825.664 10.4459 0
-823.999 9.78262 0
-822.339 9.11951 0
-820.679 8.46101 0
-819.023 7.80403 0
-817.367 7.15055 0
-815.717 6.50373 0
-814.071 5.85865 0
-812.425 5.21913 0
-810.781 4.58147 0
-809.139 3.95585 0
-807.502 3.33423 0
-805.861 2.71794 0
-804.224 2.10852 0
-802.59 1.50562 0
-800.958 0.910463 0
-799.326 0.325019 0
-797.7 -0.255987 0
-796.076 -0.826743 0
-794.452 -1.39164 0
-792.827 -1.94336 0
-791.204 -2.48701 0
-789.584 -3.02289 0
-787.966 -3.546 0
-786.347 -4.06006 0
-784.729 -4.56148 0
-783.112 -5.05727 0
-781.499 -5.54493 0
-779.886 -6.01916 0
-778.27 -6.48516 0
-776.658 -6.94168 0
-775.044 -7.3817 0
-773.433 -7.81247 0
-771.824 -8.23028 0
-770.216 -8.64108 0
-768.61 -9.04078 0
-766.999 -9.43053 0
-765.392 -9.8076 0
-763.784 -10.1706 0
-762.174 -10.5269 0
-760.565 -10.8666 0
-758.958 -11.2007 0
-757.352 -11.5201 0
-755.747 -11.8322 0
-754.138 -12.1293 0
-752.531 -12.416 0
-750.923 -12.6903 0
-749.318 -12.9526 0
-747.709 -13.2023 0
-746.103 -13.4412 0
-744.497 -13.6719 0
-742.887 -13.8925 0
-741.274 -14.0998 0
-739.666 -14.2962 0
-738.057 -14.4781 0
-736.449 -14.6487 0
-734.84 -14.8106 0
-733.23 -14.9614 0
-731.618 -15.1049 0
-730.007 -15.2367 0
-728.396 -15.3562 0
-726.781 -15.4635 0
-725.167 -15.563 0
-723.555 -15.6476 0
-721.938 -15.7279 0
-720.322 -15.798 0
-718.703 -15.859 0
-717.083 -15.9089 0
-715.464 -15.9552 0
-713.843 -15.9891 0
-712.225 -16.0096 0
-710.604 -16.018 0
-708.979 -16.0254 0
-707.357 -16.0243 0
-705.733 -16.0116 0
-704.107 -15.989 0
-702.481 -15.9594 0
-700.857 -15.9244 0
-699.227 -15.8843 0
-697.596 -15.8321 0
-695.965 -15.7735 0
-694.337 -15.7106 0
-692.704 -15.6388 0
-691.072 -15.56 0
-689.439 -15.4684 0
-687.803 -15.3726 0
-686.164 -15.2742 0
-684.528 -15.1671 0
-682.891 -15.0573 0
-681.253 -14.94 0
-679.612 -14.8146 0
-677.97 -14.6858 0
-676.329 -14.5526 0
-674.684 -14.4137 0
-673.039 -14.2764 0
-671.394 -14.1257 0
-669.746 -13.9751 0
-668.095 -13.8185 0
-666.444 -13.6574 0
-664.797 -13.4916 0
-663.145 -13.3198 0
-661.493 -13.1514 0
-659.84 -12.9722 0
-658.187 -12.7918 0
-656.53 -12.6146 0
-654.875 -12.4333 0
-653.218 -12.2451 0
-651.56 -12.0502 0
-649.898 -11.8554 0
-648.238 -11.6625 0
-646.578 -11.463 0
-644.914 -11.2655 0
-643.253 -11.0631 0
-641.588 -10.8589 0
-639.924 -10.6532 0
-638.259 -10.4532 0
-636.59 -10.2453 0
-634.922 -10.0382 0
-633.251 -9.83812 0
-631.576 -9.62774 0
-629.906 -9.41766 0
-628.23 -9.20599 0
-626.563 -8.99722 0
-624.891 -8.78804 0
-623.217 -8.58351 0
-621.544 -8.36982 0
-619.868 -8.16037 0
-618.189 -7.9508 0
-616.514 -7.74859 0
-614.838 -7.53733 0
-613.159 -7.32743 0
-611.481 -7.12285 0
-609.801 -6.92075 0
-608.121 -6.7168 0
-606.445 -6.51113 0
-604.765 -6.30945 0
-603.082 -6.10709 0
-601.397 -5.9122 0
-599.713 -5.71597 0
-598.03 -5.52662 0
-596.347 -5.3341 0
-594.664 -5.14101 0
-592.98 -4.95634 0
-591.289 -4.76626 0
-589.603 -4.5853 0
-587.914 -4.40087 0
-586.229 -4.22298 0
-584.542 -4.04514 0
-582.857 -3.86716 0
-581.17 -3.69414 0
-579.48 -3.52356 0
-577.792 -3.35707 0
-576.099 -3.1916 0
-574.407 -3.02899 0
-572.72 -2.87296 0
-571.027 -2.71211 0
-569.343 -2.55373 0
-567.658 -2.39895 0
-565.968 -2.25177 0
-564.277 -2.10769 0
-562.582 -1.96345 0
-560.888 -1.82818 0
-559.195 -1.68765 0
-557.507 -1.54747 0
-555.818 -1.42276 0
-554.127 -1.29646 0
-552.436 -1.1719 0
-550.744 -1.05377 0
-549.053 -0.938569 0
-547.358 -0.824812 0
-545.664 -0.721062 0
-543.975 -0.609852 0
-542.282 -0.505642 0
-540.588 -0.409894 0
-538.896 -0.309397 0
-537.197 -0.209146 0
-535.502 -0.117062 0
-533.813 -0.0310157 0
-532.121 0.0501208 0
-530.429 0.130923 0
-528.74 0.212141 0
-527.05 0.279862 0
-525.357 0.343311 0
-523.663 0.412331 0
-521.975 0.476744 0
-520.285 0.534631 0
-518.589 0.589091 0
-516.892 0.645838 0
-515.205 0.697447 0
-513.513 0.742503 0
-511.821 0.78649 0
-510.133 0.826672 0
-508.441 0.860687 0
-506.752 0.902917 0
-505.06 0.928474 0
-503.369 0.961797 0
-501.678 0.987276 0
-499.994 1.00712 0
-498.302 1.02996 0
-496.61 1.04549 0
-494.923 1.05928 0
-493.234 1.07319 0
-491.545 1.08288 0
-489.856 1.08401 0
-488.166 1.0892 0
-486.478 1.08859 0
-484.792 1.08422 0
-483.106 1.0796 0
-481.418 1.06799 0
-479.736 1.05132 0
-478.048 1.04266 0
-476.365 1.02836 0
-474.677 1.01023 0
-472.99 0.986261 0
-471.302 0.96467 0
-469.616 0.942783 0
-467.925 0.912137 0
-466.243 0.883811 0
-464.561 0.848224 0
-462.872 0.810518 0
-461.186 0.772144 0
-459.499 0.722733 0
-457.818 0.680649 0
-456.131 0.641341 0
-454.447 0.59635 0
-452.762 0.547384 0
-451.076 0.492718 0
-449.395 0.44371 0
-447.72 0.397902 0
-446.041 0.343334 0
-444.366 0.286278 0
-442.679 0.229074 0
-440.996 0.16903 0
-439.323 0.104453 0
-437.647 0.0429474 0
-435.963 -0.0112725 0
-434.285 -0.0820903 0
-432.609 -0.144945 0
-430.927 -0.21571 0
-429.247 -0.290835 0
-427.567 -0.356169 0
-425.888 -0.425434 0
-424.208 -0.49189 0
-422.53 -0.562666 0
-420.853 -0.644713 0
-419.176 -0.723179 0
-417.497 -0.79761 0
-415.816 -0.867109 0
-414.143 -0.940998 0
-412.469 -1.02569 0
-410.789 -1.10542 0
-409.114 -1.18702 0
-407.442 -1.26793 0
-405.761 -1.34912 0
-404.089 -1.4318 0
-402.416 -1.51717 0
-400.748 -1.60226 0
-399.071 -1.68449 0
-397.394 -1.7629 0
-395.723 -1.84633 0
-394.046 -1.9298 0
-392.371 -2.01922 0
-390.705 -2.11069 0
-389.027 -2.19531 0
-387.357 -2.29209 0
-385.685 -2.37539 0
-384.01 -2.46747 0
-382.344 -2.55418 0
-380.668 -2.62952 0
-378.991 -2.719 0
-377.325 -2.80122 0
-375.653 -2.88789 0
-373.986 -2.97981 0
-372.318 -3.06273 0
-370.645 -3.15787 0
-368.971 -3.23843 0
-367.297 -3.32578 0
-365.627 -3.40485 0
-363.963 -3.49007 0
-362.301 -3.57605 0
-360.63 -3.66125 0
-358.964 -3.73933 0
-357.29 -3.82534 0
-355.62 -3.9051 0
-353.947 -3.98615 0
-352.277 -4.07335 0
-350.607 -4.15367 0
-348.942 -4.23667 0
-347.277 -4.31713 0
-345.608 -4.39958 0
-343.939 -4.4663 0
-342.276 -4.54763 0
-340.611 -4.61971 0
-338.945 -4.69464 0
-337.276 -4.77451 0
-335.604 -4.85954 0
-333.939 -4.93589 0
-332.266 -5.00644 0
-330.603 -5.07546 0
-328.936 -5.15053 0
-327.267 -5.22377 0
-325.604 -5.29342 0
-323.94 -5.36597 0
-322.275 -5.4317 0
-320.608 -5.50028 0
-318.942 -5.56849 0
-317.276 -5.63378 0
-315.61 -5.70235 0
-313.943 -5.76861 0
-312.274 -5.82902 0
-310.609 -5.89464 0
-308.946 -5.95261 0
-307.28 -6.01331 0
-305.607 -6.07553 0
-303.937 -6.13195 0
-302.281 -6.18363 0
-300.62 -6.23417 0
-298.953 -6.29099 0
-297.291 -6.34565 0
-295.626 -6.40716 0
-293.955 -6.4642 0
-292.287 -6.52129 0
-290.619 -6.56444 0
-288.953 -6.60681 0
-287.291 -6.65501 0
-285.628 -6.70722 0
-283.965 -6.75464 0
-282.297 -6.80842 0
-280.633 -6.85105 0
-278.966 -6.88889 0
-277.302 -6.93361 0
-275.638 -6.98125 0
-273.973 -7.01829 0
-272.306 -7.05917 0
-270.635 -7.09502 0
-268.965 -7.13701 0
-267.305 -7.17188 0
-265.648 -7.20136 0
-263.982 -7.23108 0
-262.316 -7.26969 0
-260.644 -7.29459 0
-258.982 -7.33372 0
-257.314 -7.36311 0
-255.644 -7.3892 0
-253.981 -7.4067 0
-252.317 -7.44051 0
-250.649 -7.47272 0
-248.977 -7.49484 0
-247.314 -7.51322 0
-245.653 -7.53905 0
-243.986 -7.55804 0
-242.319 -7.58184 0
-240.652 -7.61336 0
-238.995 -7.62294 0
-237.323 -7.64798 0
-235.656 -7.65848 0
-233.99 -7.67719 0
-232.323 -7.68948 0
-230.653 -7.70309 0
-228.99 -7.71766 0
-227.326 -7.73719 0
-225.655 -7.75204 0
-223.99 -7.75669 0
-222.319 -7.77624 0
-220.655 -7.7881 0
-218.99 -7.79068 0
-217.323 -7.79699 0
-215.662 -7.805 0
-213.989 -7.80764 0
-212.32 -7.81215 0
-210.646 -7.82219 0
-208.98 -7.82703 0
-207.314 -7.8288 0
-205.652 -7.83398 0
-203.985 -7.83271 0
-202.316 -7.82884 0
-200.647 -7.83369 0
-198.978 -7.82917 0
-197.312 -7.83187 0
-195.644 -7.82471 0
-193.979 -7.82605 0
-192.314 -7.8241 0
-190.642 -7.81652 0
-188.974 -7.80412 0
-187.31 -7.79833 0
-185.642 -7.79989 0
-183.97 -7.78594 0
-182.298 -7.78058 0
-180.625 -7.7804 0
-178.952 -7.77016 0
-177.283 -7.75453 0
-175.616 -7.74466 0
-173.945 -7.73812 0
-172.279 -7.72686 0
-170.61 -7.70645 0
-168.941 -7.70034 0
-167.27 -7.68762 0
-165.599 -7.67791 0
-163.929 -7.66506 0
-162.256 -7.65604 0
-160.591 -7.64582 0
-158.92 -7.63768 0
-157.252 -7.62419 0
-155.588 -7.6127 0
-153.916 -7.58824 0
-152.25 -7.58459 0
-150.579 -7.56595 0
-148.909 -7.54747 0
-147.238 -7.53564 0
-145.564 -7.51707 0
-143.894 -7.50423 0
-142.226 -7.48782 0
-140.552 -7.47052 0
-138.884 -7.44969 0
-137.211 -7.436 0
-135.538 -7.41975 0
-133.862 -7.39971 0
-132.194 -7.37793 0
-130.523 -7.35491 0
-128.855 -7.32715 0
-127.176 -7.32415 0
-125.505 -7.30205 0
-123.83 -7.2871 0
-122.163 -7.27745 0
-120.49 -7.25805 0
-118.818 -7.2355 0
-117.146 -7.21657 0
-115.478 -7.19727 0
-113.803 -7.18184 0
-112.13 -7.16348 0
-110.452 -7.14504 0
-108.785 -7.12868 0
-107.11 -7.10897 0
-105.438 -7.09384 0
-103.772 -7.08109 0
-102.1 -7.05529 0
-100.426 -7.03849 0
-98.7549 -7.01816 0
-97.0842 -7.00608 0
-95.4166 -6.99101 0
-93.7345 -6.9693 0
-92.066 -6.95084 0
-90.3931 -6.93094 0
-88.7188 -6.92094 0
-87.0453 -6.89543 0
-85.3747 -6.88013 0
-83.7028 -6.86595 0
-82.0235 -6.85093 0
-80.3541 -6.8337 0
-78.684 -6.81738 0
-77.0061 -6.80454 0
-75.329 -6.79317 0
-73.6552 -6.77284 0
-71.979 -6.7567 0
-70.3067 -6.74173 0
-68.6271 -6.72219 0
-66.9588 -6.71097 0
-65.2914 -6.69269 0
-63.6196 -6.68418 0
-61.9505 -6.66378 0
-60.2697 -6.65245 0
-58.5961 -6.63808 0
-56.9194 -6.62102 0
-55.2456 -6.6141 0
-53.5764 -6.60226 0
-51.9052 -6.58841 0
-50.2312 -6.58125 0
-48.5575 -6.57126 0
-46.8801 -6.56393 0
-45.2068 -6.54493 0
-43.5341 -6.5434 0
-41.85 -6.53412 0
-40.1814 -6.5215 0
-38.5025 -6.51078 0
-36.8316 -6.49802 0
-35.1579 -6.49469 0
-33.4835 -6.48091 0
-31.8129 -6.48045 0
-30.1347 -6.47242 0
-28.4637 -6.47327 0
-26.7931 -6.46263 0
-25.1093 -6.45512 0
-23.4392 -6.45391 0
-21.7617 -6.4443 0
-20.0803 -6.43677 0
-18.4134 -6.42358 0
-16.7414 -6.41558 0
-15.0632 -6.42372 0
-13.3918 -6.42252 0
-11.7218 -6.42287 0
-10.0442 -6.4284 0
-8.36541 -6.4219 0
-6.68822 -6.41517 0
-5.02334 -6.41788 0
-3.34315 -6.41664 0
-1.67321 -6.42248 0
0 -6.42998 0
-1116.16 312.489 0
-1115.87 293.554 0
-1115.68 274.91 0
-1115.46 256.485 0
-1115.18 238.322 0
-1114.84 220.46 0
-1114.47 202.952 0
-1114.06 185.847 0
-1113.61 169.185 0
-1113.14 153.002 0
-1112.65 137.331 0
-1112.14 122.182 0
-1111.6 107.571 0
-1111.03 93.5127 0
-1110.45 80.0071 0
-1109.83 67.0631 0
-1109.2 54.6731 0
-1108.55 42.8269 0
-1107.88 31.5128 0
-1107.22 20.7073 0
-1106.57 10.3837 0
-1105.93 0.516605 0
-1105.27 -8.90533 0
-1104.62 -17.8807 0
-1103.98 -26.4269 0
-1103.34 -34.5371 0
-1102.7 -42.2249 0
-1102.06 -49.5081 0
-1101.43 -56.3851 0
-1100.8 -62.865 0
-1100.17 -68.9634 0
-1099.54 -74.6839 0
-1098.91 -80.0373 0
-1098.27 -85.0242 0
-1097.62 -89.6617 0
-1096.98 -93.956 0
-1096.32 -97.9162 0
-1095.66 -101.545 0
-1094.98 -104.863 0
-1094.3 -107.875 0
-1093.6 -110.586 0
-1092.89 -113.019 0
-1092.16 -115.171 0
-1091.42 -117.047 0
-1090.66 -118.665 0
-1089.88 -120.036 0
-1089.09 -121.162 0
-1088.27 -122.06 0
-1087.43 -122.737 0
-1086.57 -123.202 0
-1085.69 -123.465 0
-1084.78 -123.532 0
-1083.86 -123.415 0
-1082.91 -123.12 0
-1081.94 -122.659 0
-1080.94 -122.035 0
-1079.92 -121.264 0
-1078.88 -120.347 0
-1077.81 -119.292 0
-1076.72 -118.107 0
-1075.6 -116.804 0
-1074.47 -115.386 0
-1073.3 -113.861 0
-1072.12 -112.237 0
-1070.9 -110.515 0
-1069.67 -108.706 0
-1068.42 -106.818 0
-1067.14 -104.849 0
-1065.83 -102.814 0
-1064.51 -100.714 0
-1063.17 -98.5552 0
-1061.8 -96.3383 0
-1060.42 -94.0731 0
-1059.01 -91.7653 0
-1057.58 -89.4123 0
-1056.14 -87.0294 0
-1054.67 -84.6128 0
-1053.19 -82.1658 0
-1051.69 -79.6953 0
-1050.16 -77.2074 0
-1048.63 -74.7026 0
-1047.07 -72.1863 0
-1045.5 -69.6607 0
-1043.91 -67.1279 0
-1042.31 -64.5953 0
-1040.69 -62.0578 0
-1039.05 -59.5265 0
-1037.4 -57.0021 0
-1035.74 -54.4825 0
-1034.07 -51.9771 0
-1032.38 -49.4858 0
-1030.68 -47.0077 0
-1028.97 -44.5489 0
-1027.24 -42.1071 0
-1025.51 -39.6919 0
-1023.76 -37.2992 0
-1022.01 -34.9276 0
-1020.25 -32.5851 0
-1018.47 -30.2686 0
-1016.69 -27.9865 0
-1014.89 -25.7342 0
-1013.09 -23.5145 0
-1011.29 -21.3235 0
-1009.47 -19.1728 0
-1007.65 -17.06 0
-1005.82 -14.9787 0
-1003.99 -12.9367 0
-1002.15 -10.9372 0