<?xml version="1.0"?>
<VTKFile type="StructuredGrid"  version="0.1" byte_order="LittleEndian" compressor="vtkZLibDataCompressor">
  <StructuredGrid WholeExtent="0 700 0 30 0 0">
    <Piece Extent="0 700 0 30 0 0">
      <PointData Vectors="Velocity">
        <DataArray type="Float32" Name="Velocity" NumberOfComponents="3" format="ascii">
-1087.89 170.514 0
-1088.15 157.422 0
-1088.46 144.45 0
-1088.79 131.685 0
-1089.13 119.155 0
-1089.52 106.913 0
-1089.97 95.0276 0
-1090.47 83.5814 0
-1091 72.6041 0
-1091.55 62.1275 0
-1092.1 52.1813 0
-1092.66 42.7695 0
-1093.19 33.9147 0
-1093.7 25.6392 0
-1094.17 17.9546 0
-1094.53 10.8498 0
-1094.77 4.20106 0
-1095.01 -2.10494 0
-1095.2 -8.06807 0
-1095.45 -13.6483 0
-1095.7 -18.8252 0
-1095.93 -23.6083 0
-1096.14 -27.9989 0
-1096.32 -31.9986 0
-1096.48 -35.6111 0
-1096.63 -38.8496 0
-1096.73 -41.734 0
-1096.8 -44.2726 0
-1096.83 -46.4838 0
-1096.81 -48.3818 0
-1096.74 -49.9729 0
-1096.62 -51.297 0
-1096.45 -52.3485 0
-1096.21 -53.1571 0
-1095.92 -53.7291 0
-1095.57 -54.099 0
-1095.16 -54.2552 0
-1094.7 -54.2233 0
-1094.18 -54.0161 0
-1093.6 -53.6458 0
-1092.95 -53.1228 0
-1092.26 -52.4625 0
-1091.51 -51.6688 0
-1090.71 -50.7669 0
-1089.85 -49.743 0
-1088.92 -48.6258 0
-1087.97 -47.425 0
-1086.95 -46.1353 0
-1085.89 -44.7666 0
-1084.78 -43.3441 0
-1083.63 -41.8654 0
-1082.42 -40.3277 0
-1081.18 -38.7535 0
-1079.89 -37.1444 0
-1078.57 -35.5094 0
-1077.21 -33.8511 0
-1075.81 -32.1775 0
-1074.38 -30.4871 0
-1072.92 -28.7844 0
-1071.42 -27.0829 0
-1069.89 -25.3754 0
-1068.33 -23.6741 0
-1066.74 -21.9844 0
-1065.13 -20.3045 0
-1063.49 -18.6444 0
-1061.82 -17.0007 0
-1060.14 -15.3825 0
-1058.43 -13.7825 0
-1056.7 -12.2118 0
-1054.95 -10.6711 0
-1053.18 -9.15398 0
-1051.4 -7.67137 0
-1049.6 -6.22206 0
-1047.78 -4.81322 0
-1045.95 -3.43836 0
-1044.11 -2.10524 0
-1042.26 -0.812501 0
-1040.4 0.439416 0
-1038.52 1.65269 0
-1036.64 2.81979 0
-1034.75 3.95076 0
-1032.85 5.03673 0
-1030.94 6.07866 0
-1029.03 7.07053 0
-1027.11 8.02463 0
-1025.19 8.92963 0
-1023.26 9.7891 0
-1021.33 10.6049 0
-1019.39 11.3756 0
-1017.46 12.1025 0
-1015.53 12.7796 0
-1013.59 13.4156 0
-1011.65 14.0055 0
-1009.71 14.5548 0
-1007.78 15.0604 0
-1005.85 15.5254 0
-1003.91 15.944 0
-1001.98 16.3207 0
-1000.05 16.653 0
-998.125 16.9481 0
-996.199 17.2041 0
-994.281 17.4208 0
-992.365 17.6011 0
-990.452 17.7432 0
-988.542 17.8477 0
-986.64 17.9183 0
-984.744 17.9536 0
-982.852 17.9532 0
-980.965 17.9192 0
-979.086 17.8537 0
-977.209 17.7578 0
-975.341 17.6318 0
-973.476 17.4768 0
-971.62 17.2927 0
-969.773 17.0852 0
-967.931 16.8479 0
-966.094 16.5908 0
-964.265 16.3092 0
-962.445 16.0035 0
-960.63 15.6762 0
-958.823 15.3299 0
-957.022 14.9642 0
-955.229 14.5793 0
-953.443 14.1782 0
-951.667 13.7612 0
-949.895 13.3339 0
-948.13 12.8866 0
-946.372 12.4284 0
-944.622 11.9577 0
-942.878 11.4766 0
-941.145 10.9869 0
-939.414 10.4887 0
-937.691 9.98118 0
-935.975 9.4674 0
-934.265 8.95148 0
-932.562 8.42569 0
-930.865 7.898 0
-929.176 7.36695 0
-927.49 6.83545 0
-925.81 6.30225 0
-924.136 5.76923 0
-922.467 5.23573 0
-920.807 4.70257 0
-919.149 4.17249 0
-917.494 3.64043 0
-915.847 3.1158 0
-914.206 2.59376 0
-912.567 2.07681 0
-910.932 1.56372 0
-909.302 1.05698 0
-907.674 0.556421 0
-906.054 0.0651835 0
-904.435 -0.419932 0
-902.821 -0.894413 0
-901.21 -1.36493 0
-899.6 -1.82371 0
-897.996 -2.27286 0
-896.394 -2.71358 0
-894.794 -3.14513 0
-893.198 -3.56504 0
-891.603 -3.97554 0
-890.012 -4.37327 0
-888.419 -4.76294 0
-886.829 -5.13817 0
-885.243 -5.50405 0
-883.659 -5.85672 0
-882.074 -6.19423 0
-880.49 -6.5239 0
-878.91 -6.8381 0
-877.33 -7.14218 0
-875.753 -7.43345 0
-874.176 -7.70898 0
-872.596 -7.97383 0
-871.016 -8.22831 0
-869.437 -8.46565 0
-867.859 -8.69315 0
-866.28 -8.9084 0
-864.7 -9.11224 0
-863.125 -9.30468 0
-861.547 -9.48119 0
-859.967 -9.64771 0
-858.386 -9.80361 0
-856.807 -9.94609 0
-855.228 -10.0751 0
-853.648 -10.1934 0
-852.066 -10.3006 0
-850.481 -10.3963 0
-848.894 -10.4824 0
-847.308 -10.5567 0
-845.722 -10.6193 0
-844.134 -10.6744 0
-842.545 -10.7183 0
-840.956 -10.7519 0
-839.364 -10.7706 0
-837.768 -10.7853 0
-836.174 -10.7894 0
-834.578 -10.7862 0
-832.981 -10.7739 0
-831.383 -10.7487 0
-829.781 -10.72 0
-828.178 -10.6828 0
-826.573 -10.6391 0
-824.969 -10.585 0
-823.36 -10.5235 0
-821.751 -10.4565 0
-820.138 -10.3808 0
-818.526 -10.3043 0
-816.912 -10.216 0
-815.294 -10.1245 0
-813.677 -10.0304 0
-812.055 -9.92571 0
-810.43 -9.81997 0
-808.809 -9.70803 0
-807.184 -9.59315 0
-805.557 -9.4719 0
-803.927 -9.34829 0
-802.297 -9.2208 0
-800.665 -9.08792 0
-799.03 -8.95591 0
-797.395 -8.818 0
-795.756 -8.68172 0
-794.116 -8.53994 0
-792.475 -8.39765 0
-790.833 -8.25315 0
-789.189 -8.10697 0
-787.543 -7.95844 0
-785.899 -7.81167 0
-784.25 -7.65915 0
-782.597 -7.51029 0
-780.943 -7.3606 0
-779.289 -7.21021 0
-777.634 -7.06062 0
-775.978 -6.91182 0
-774.322 -6.76177 0
-772.664 -6.61194 0
-771.006 -6.46471 0
-769.345 -6.3186 0
-767.682 -6.17747 0
-766.021 -6.02971 0
-764.353 -5.88238 0
-762.687 -5.73922 0
-761.02 -5.59942 0
-759.353 -5.4608 0
-757.683 -5.32376 0
-756.012 -5.1899 0
-754.344 -5.05996 0
-752.675 -4.92905 0
-751.005 -4.80054 0
-749.336 -4.67505 0
-747.662 -4.55635 0
-745.987 -4.43769 0
-744.312 -4.31889 0
-742.636 -4.20552 0
-740.963 -4.09504 0
-739.286 -3.98742 0
-737.608 -3.88291 0
-735.932 -3.78085 0
-734.257 -3.67909 0
-732.578 -3.58637 0
-730.902 -3.49474 0
-729.223 -3.4054 0
-727.543 -3.31869 0
-725.867 -3.23793 0
-724.188 -3.16023 0
-722.51 -3.08371 0
-720.828 -3.01271 0
-719.149 -2.94511 0
-717.47 -2.8853 0
-715.792 -2.82359 0
-714.113 -2.76426 0
-712.435 -2.71122 0
-710.753 -2.66284 0
-709.076 -2.6126 0
-707.395 -2.5688 0
-705.714 -2.53084 0
-704.037 -2.49362 0
-702.36 -2.46272 0
-700.679 -2.43566 0
-699.001 -2.40763 0
-697.325 -2.3803 0
-695.644 -2.36432 0
-693.967 -2.34904 0
-692.294 -2.33523 0
-690.613 -2.32067 0
-688.939 -2.31173 0
-687.263 -2.30243 0
-685.589 -2.30711 0
-683.911 -2.31052 0
-682.237 -2.3102 0
-680.561 -2.31527 0
-678.887 -2.32685 0
-677.215 -2.33806 0
-675.541 -2.35191 0
-673.867 -2.36865 0
-672.193 -2.38498 0
-670.522 -2.40735 0
-668.848 -2.43411 0
-667.18 -2.45791 0
-665.513 -2.48724 0
-663.845 -2.51642 0
-662.172 -2.551 0
-660.504 -2.58485 0
-658.835 -2.6235 0
-657.165 -2.65972 0
-655.496 -2.69794 0
-653.836 -2.73731 0
-652.166 -2.7796 0
-650.497 -2.82205 0
-648.832 -2.86769 0
-647.164 -2.91453 0
-645.498 -2.96145 0
-643.836 -3.00721 0
-642.172 -3.0565 0
-640.509 -3.10733 0
-638.841 -3.1561 0
-637.178 -3.20826 0
-635.515 -3.26497 0
-633.854 -3.31965 0
-632.195 -3.3721 0
-630.534 -3.42605 0
-628.875 -3.48064 0
-627.214 -3.53779 0
-625.553 -3.5962 0
-623.894 -3.65472 0
-622.24 -3.70963 0
-620.582 -3.76953 0
-618.924 -3.82775 0
-617.266 -3.88178 0
-615.611 -3.93858 0
-613.949 -3.99403 0
-612.292 -4.05051 0
-610.634 -4.1106 0
-608.979 -4.16909 0
-607.324 -4.22546 0
-605.667 -4.28004 0
-604.012 -4.34058 0
-602.362 -4.39552 0
-600.707 -4.45195 0
-599.052 -4.50736 0
-597.399 -4.56093 0
-595.746 -4.61366 0
-594.097 -4.66932 0
-592.442 -4.71939 0
-590.796 -4.77263 0
-589.14 -4.82167 0
-587.483 -4.86957 0
-585.836 -4.92491 0
-584.18 -4.97604 0
-582.53 -5.02204 0
-580.879 -5.06994 0
-579.229 -5.11683 0
-577.58 -5.16007 0
-575.926 -5.19983 0
-574.276 -5.23902 0
-572.626 -5.28367 0
-570.978 -5.32777 0
-569.329 -5.37448 0
-567.682 -5.41187 0
-566.029 -5.44947 0
-564.38 -5.48351 0
-562.731 -5.52349 0
-561.085 -5.55999 0
-559.433 -5.5973 0
-557.781 -5.62392 0
-556.136 -5.65573 0
-554.487 -5.6906 0
-552.84 -5.72124 0
-551.19 -5.7493 0
-549.538 -5.77299 0
-547.893 -5.80161 0
-546.245 -5.82871 0
-544.596 -5.84755 0
-542.944 -5.87344 0
-541.297 -5.89476 0
-539.646 -5.91453 0
-537.998 -5.93163 0
-536.351 -5.94625 0
-534.7 -5.96728 0
-533.049 -5.98504 0
-531.401 -6.0049 0
-529.752 -6.00986 0
-528.104 -6.02662 0
-526.455 -6.03596 0
-524.803 -6.04943 0
-523.153 -6.0584 0
-521.501 -6.07385 0
-519.854 -6.08165 0
-518.211 -6.08616 0
-516.562 -6.09017 0
-514.912 -6.09484 0
-513.264 -6.10107 0
-511.615 -6.10028 0
-509.96 -6.10395 0
-508.308 -6.10789 0
-506.661 -6.10618 0
-505.012 -6.10756 0
-503.358 -6.10656 0
-501.707 -6.10751 0
-500.058 -6.10984 0
-498.407 -6.10165 0
-496.752 -6.09647 0
-495.103 -6.09567 0
-493.454 -6.08582 0
-491.801 -6.07894 0
-490.151 -6.07215 0
-488.498 -6.07288 0
-486.846 -6.06283 0
-485.196 -6.05458 0
-483.545 -6.04298 0
-481.892 -6.0311 0
-480.24 -6.02396 0
-478.589 -6.00999 0
-476.931 -5.99574 0
-475.277 -5.97921 0
-473.625 -5.97238 0
-471.968 -5.96005 0
-470.317 -5.9464 0
-468.665 -5.931 0
-467.007 -5.92232 0
-465.352 -5.90957 0
-463.7 -5.88666 0
-462.048 -5.87838 0
-460.393 -5.8647 0
-458.736 -5.84521 0
-457.081 -5.82724 0
-455.428 -5.81397 0
-453.774 -5.79722 0
-452.12 -5.78343 0
-450.467 -5.7655 0
-448.812 -5.75265 0
-447.156 -5.73029 0
-445.498 -5.71958 0
-443.843 -5.69938 0
-442.189 -5.67948 0
-440.536 -5.66508 0
-438.879 -5.64169 0
-437.216 -5.62909 0
-435.562 -5.61049 0
-433.901 -5.59229 0
-432.249 -5.58034 0
-430.591 -5.5575 0
-428.934 -5.5452 0
-427.279 -5.53008 0
-425.614 -5.51804 0
-423.962 -5.50254 0
-422.303 -5.48269 0
-420.648 -5.46804 0
-418.989 -5.44973 0
-417.334 -5.43167 0
-415.676 -5.41775 0
-414.017 -5.40006 0
-412.365 -5.38906 0
-410.714 -5.37181 0
-409.054 -5.35801 0
-407.391 -5.34487 0
-405.731 -5.32315 0
-404.079 -5.31138 0
-402.425 -5.2894 0
-400.76 -5.27825 0
-399.101 -5.26691 0
-397.447 -5.25401 0
-395.788 -5.23958 0
-394.129 -5.22988 0
-392.47 -5.21223 0
-390.815 -5.19452 0
-389.155 -5.18856 0
-387.496 -5.17042 0
-385.836 -5.15891 0
-384.178 -5.14475 0
-382.52 -5.1384 0
-380.867 -5.12701 0
-379.204 -5.114 0
-377.545 -5.10626 0
-375.882 -5.09111 0
-374.227 -5.08046 0
-372.565 -5.07673 0
-370.911 -5.06363 0
-369.251 -5.06003 0
-367.597 -5.05422 0
-365.934 -5.04226 0
-364.28 -5.04144 0
-362.621 -5.02966 0
-360.966 -5.02235 0
-359.311 -5.01342 0
-357.65 -5.01198 0
-355.992 -5.00087 0
-354.335 -4.99561 0
-352.679 -4.9915 0
-351.02 -4.98654 0
-349.359 -4.97829 0
-347.702 -4.97537 0
-346.045 -4.97206 0
-344.387 -4.96818 0
-342.733 -4.96309 0
-341.075 -4.96046 0
-339.417 -4.94932 0
-337.758 -4.95034 0
-336.096 -4.94641 0
-334.438 -4.94411 0
-332.778 -4.94064 0
-331.118 -4.93737 0
-329.466 -4.93771 0
-327.809 -4.93362 0
-326.154 -4.93279 0
-324.497 -4.93405 0
-322.84 -4.93821 0
-321.178 -4.93686 0
-319.522 -4.93342 0
-317.868 -4.93619 0
-316.209 -4.93759 0
-314.552 -4.94239 0
-312.896 -4.93879 0
-311.237 -4.939 0
-309.58 -4.93615 0
-307.924 -4.94505 0
-306.264 -4.94712 0
-304.603 -4.94527 0
-302.944 -4.94761 0
-301.291 -4.94664 0
-299.641 -4.94898 0
-297.982 -4.94677 0
-296.318 -4.94665 0
-294.658 -4.94883 0
-293.002 -4.95696 0
-291.352 -4.96087 0
-289.692 -4.96379 0
-288.035 -4.96952 0
-286.378 -4.97476 0
-284.721 -4.96959 0
-283.07 -4.97447 0
-281.412 -4.98037 0
-279.755 -4.97769 0
-278.094 -4.98432 0
-276.445 -4.98691 0
-274.789 -4.99459 0
-273.133 -4.99645 0
-271.475 -4.99572 0
-269.818 -5.0055 0
-268.157 -5.00517 0
-266.502 -5.00903 0
-264.852 -5.01559 0
-263.195 -5.02189 0
-261.534 -5.02067 0
-259.882 -5.02453 0
-258.219 -5.02832 0
-256.569 -5.02872 0
-254.91 -5.04041 0
-253.254 -5.04169 0
-251.595 -5.04861 0
-249.938 -5.04669 0
-248.283 -5.04835 0
-246.632 -5.05615 0
-244.978 -5.06006 0
-243.328 -5.0704 0
-241.664 -5.0628 0
-240.011 -5.06552 0
-238.351 -5.07297 0
-236.689 -5.07336 0
-235.037 -5.08429 0
-233.385 -5.08156 0
-231.732 -5.07887 0
-230.079 -5.0894 0
-228.427 -5.08779 0
-226.77 -5.09343 0
-225.116 -5.09963 0
-223.459 -5.09825 0
-221.801 -5.1029 0
-220.148 -5.10097 0
-218.493 -5.1018 0
-216.842 -5.10087 0
-215.185 -5.10776 0
-213.528 -5.11459 0
-211.874 -5.10271 0
-210.221 -5.11154 0
-208.563 -5.11419 0
-206.9 -5.11651 0
-205.245 -5.12077 0
-203.592 -5.12275 0
-201.939 -5.12647 0
-200.282 -5.13224 0
-198.632 -5.12715 0
-196.976 -5.13733 0
-195.319 -5.13361 0
-193.661 -5.13515 0
-192.008 -5.13259 0
-190.354 -5.13796 0
-188.694 -5.13659 0
-187.038 -5.13576 0
-185.385 -5.13969 0
-183.728 -5.14353 0
-182.074 -5.14607 0
-180.421 -5.15014 0
-178.765 -5.14721 0
-177.111 -5.14481 0
-175.459 -5.15523 0
-173.806 -5.15236 0
-172.152 -5.15394 0
-170.496 -5.151 0
-168.839 -5.14284 0
-167.188 -5.14342 0
-165.539 -5.14283 0
-163.885 -5.1424 0
-162.23 -5.13654 0
-160.573 -5.1431 0
-158.912 -5.13607 0
-157.258 -5.13958 0
-155.608 -5.13785 0
-153.947 -5.13168 0
-152.29 -5.13491 0
-150.629 -5.13224 0
-148.975 -5.12711 0
-147.319 -5.13407 0
-145.666 -5.13156 0
-144.007 -5.13376 0
-142.359 -5.13377 0
-140.703 -5.13009 0
-139.056 -5.12566 0
-137.399 -5.1231 0
-135.748 -5.1141 0
-134.089 -5.12253 0
-132.432 -5.12176 0
-130.777 -5.11773 0
-129.125 -5.11734 0
-127.47 -5.10615 0
-125.814 -5.10566 0
-124.159 -5.09969 0
-122.504 -5.09282 0
-120.846 -5.09611 0
-119.188 -5.08631 0
-117.532 -5.08625 0
-115.885 -5.08119 0
-114.228 -5.08476 0
-112.564 -5.08088 0
-110.91 -5.08145 0
-109.254 -5.08105 0
-107.602 -5.08338 0
-105.953 -5.07175 0
-104.301 -5.07219 0
-102.653 -5.06641 0
-100.993 -5.06926 0
-99.337 -5.0624 0
-97.6805 -5.05988 0
-96.022 -5.05084 0
-94.3692 -5.05034 0
-92.7099 -5.05177 0
-91.0504 -5.04654 0
-89.3962 -5.03776 0
-87.7417 -5.04191 0
-86.0819 -5.04331 0
-84.4317 -5.03962 0
-82.7766 -5.03722 0
-81.122 -5.03439 0
-79.4601 -5.03324 0
-77.8096 -5.02942 0
-76.1598 -5.02785 0
-74.5009 -5.0279 0
-72.8426 -5.02501 0
-71.1903 -5.02615 0
-69.532 -5.02328 0
-67.8751 -5.01645 0
-66.2217 -5.00895 0
-64.5628 -5.00996 0
-62.9089 -5.00452 0
-61.249 -5.00136 0
-59.5908 -5.00033 0
-57.9384 -4.99696 0
-56.2821 -4.99633 0
-54.6285 -4.99274 0
-52.9728 -4.98408 0
-51.317 -4.98971 0
-49.659 -4.99029 0
-48.0089 -4.9843 0
-46.3497 -4.98179 0
-44.6959 -4.97298 0
-43.0369 -4.97789 0
-41.3822 -4.97401 0
-39.7308 -4.974 0
-38.0742 -4.97131 0
-36.4159 -4.96778 0
-34.7653 -4.97389 0
-33.1051 -4.96612 0
-31.4492 -4.96279 0
-29.793 -4.9661 0
-28.1404 -4.96752 0
-26.4802 -4.96272 0
-24.8283 -4.96407 0
-23.1723 -4.96434 0
-21.5203 -4.9623 0
-19.8606 -4.95766 0
-18.2059 -4.95288 0
-16.5489 -4.95482 0
-14.8985 -4.9499 0
-13.2398 -4.95535 0
-11.5863 -4.95755 0
-9.93642 -4.95901 0
-8.28174 -4.95294 0
-6.62204 -4.95495 0
-4.96612 -4.95508 0
-3.31099 -4.95389 0
-1.65506 -4.95137 0
0 -4.95722 0
-1100.98 170.799 0
-1101.13 157.663 0
-1101.28 144.671 0
-1101.41 131.889 0
-1101.53 119.345 0
-1101.62 107.069 0
-1101.68 95.1523 0
-1101.72 83.6608 0
-1101.76 72.6479 0
-1101.78 62.1502 0
-1101.79 52.1787 0
-1101.78 42.7641 0
-1101.73 33.9131 0
-1101.63 25.6501 0
-1101.48 17.9929 0
-1101.33 10.9197 0
-1101.26 4.26948 0
-1101.15 -2.04526 0
-1101.04 -8.00774 0
-1100.89 -13.5883 0
-1100.73 -18.7727 0
-1100.56 -23.5512 0
-1100.37 -27.9418 0
-1100.17 -31.9275 0
-1099.96 -35.5337 0
-1099.73 -38.76 0
-1099.48 -41.6189 0
-1099.22 -44.1374 0
-1098.92 -46.3116 0
-1098.6 -48.1736 0
-1098.23 -49.7274 0
-1097.83 -51.0084 0
-1097.4 -52.0178 0
-1096.93 -52.7763 0
-1096.41 -53.3068 0
-1095.85 -53.618 0
-1095.25 -53.7244 0
-1094.6 -53.6475 0
-1093.9 -53.3896 0
-1093.16 -52.9659 0
-1092.37 -52.3926 0
-1091.55 -51.6809 0
-1090.67 -50.8424 0
-1089.75 -49.8825 0
-1088.78 -48.814 0
-1087.78 -47.6478 0
-1086.73 -46.4003 0
-1085.64 -45.0637 0
-1084.51 -43.6561 0
-1083.34 -42.1897 0
-1082.13 -40.665 0
-1080.88 -39.0894 0
-1079.6 -37.4788 0
-1078.29 -35.8331 0
-1076.94 -34.1581 0
-1075.56 -32.4664 0
-1074.14 -30.7579 0
-1072.7 -29.0381 0
-1071.23 -27.3042 0
-1069.73 -25.5699 0
-1068.2 -23.8355 0
-1066.65 -22.1071 0
-1065.07 -20.3932 0
-1063.47 -18.69 0
-1061.85 -17.0054 0
-1060.2 -15.3406 0
-1058.54 -13.6975 0
-1056.85 -12.0791 0
-1055.15 -10.4917 0
-1053.43 -8.92791 0
-1051.7 -7.39543 0
-1049.94 -5.89838 0
-1048.18 -4.43599 0
-1046.4 -3.01295 0
-1044.61 -1.62679 0
-1042.81 -0.28169 0
-1041 1.02249 0
-1039.17 2.28692 0
-1037.34 3.50854 0
-1035.5 4.68488 0
-1033.65 5.82316 0
-1031.79 6.91522 0
-1029.93 7.96129 0
-1028.06 8.96203 0
-1026.19 9.91776 0
-1024.31 10.8266 0
-1022.43 11.6919 0
-1020.54 12.5113 0
-1018.65 13.2814 0
-1016.76 14.0101 0
-1014.88 14.688 0
-1012.98 15.3248 0
-1011.09 15.9165 0
-1009.19 16.4642 0
-1007.3 16.9666 0
-1005.41 17.433 0
-1003.52 17.8503 0
-1001.63 18.225 0
-999.739 18.556 0
-997.852 18.8475 0
-995.967 19.1012 0
-994.086 19.3144 0
-992.208 19.4901 0
-990.33 19.6303 0
-988.458 19.7286 0
-986.591 19.7939 0
-984.728 19.8242 0
-982.868 19.821 0
-981.014 19.781 0
-979.164 19.7089 0
-977.321 19.6089 0
-975.481 19.4786 0
-973.646 19.3159 0
-971.817 19.1284 0
-969.992 18.9117 0
-968.177 18.6696 0
-966.364 18.4056 0
-964.558 18.1168 0
-962.759 17.8035 0
-960.965 17.4718 0
-959.176 17.1181 0
-957.396 16.7437 0
-955.619 16.3539 0
-953.852 15.9463 0
-952.088 15.5247 0
-950.331 15.0885 0
-948.58 14.6363 0
-946.834 14.1716 0
-945.095 13.6929 0
-943.363 13.2056 0
-941.635 12.7103 0
-939.914 12.2053 0
-938.199 11.6913 0
-936.489 11.1726 0
-934.785 10.6493 0
-933.086 10.1188 0
-931.392 9.58497 0
-929.702 9.04782 0
-928.02 8.51211 0
-926.341 7.97316 0
-924.667 7.43526 0
-922.999 6.89594 0
-921.335 6.35846 0
-919.676 5.82297 0
-918.021 5.28763 0
-916.369 4.75882 0
-914.722 4.23088 0
-913.078 3.7098 0
-911.439 3.19463 0
-909.803 2.68394 0
-908.171 2.17967 0
-906.54 1.68517 0
-904.914 1.19757 0
-903.29 0.715844 0
-901.672 0.245473 0
-900.054 -0.216659 0
-898.439 -0.669709 0
-896.827 -1.11377 0
-895.218 -1.54649 0
-893.61 -1.96854 0
-892.005 -2.38033 0
-890.401 -2.78192 0
-888.8 -3.17106 0
-887.199 -3.54855 0
-885.601 -3.91621 0
-884.003 -4.27023 0
-882.408 -4.61113 0
-880.811 -4.94015 0
-879.217 -5.25719 0
-877.626 -5.55986 0
-876.035 -5.85223 0
-874.443 -6.12921 0
-872.852 -6.39249 0
-871.261 -6.64667 0
-869.669 -6.88814 0
-868.079 -7.11348 0
-866.489 -7.32971 0
-864.899 -7.53218 0
-863.306 -7.72507 0
-861.717 -7.90205 0
-860.127 -8.06868 0
-858.536 -8.22184 0
-856.945 -8.36276 0
-855.354 -8.49345 0
-853.759 -8.61199 0
-852.165 -8.71658 0
-850.569 -8.81279 0
-848.974 -8.89786 0
-847.377 -8.97081 0
-845.782 -9.03346 0
-844.183 -9.08685 0
-842.584 -9.12951 0
-840.982 -9.16049 0
-839.38 -9.18092 0
-837.779 -9.19177 0
-836.176 -9.19449 0
-834.571 -9.19037 0
-832.965 -9.17508 0
-831.357 -9.14975 0
-829.747 -9.11822 0
-828.138 -9.07968 0
-826.526 -9.0355 0
-824.912 -8.97915 0
-823.296 -8.91697 0
-821.68 -8.84722 0
-820.063 -8.77182 0
-818.443 -8.69108 0
-816.82 -8.60453 0
-815.2 -8.51145 0
-813.575 -8.41351 0
-811.951 -8.30802 0
-810.325 -8.20093 0
-808.697 -8.08658 0
-807.065 -7.96921 0
-805.434 -7.84741 0
-803.802 -7.72116 0
-802.167 -7.59178 0
-800.533 -7.45924 0
-798.896 -7.32406 0
-797.257 -7.18706 0
-795.618 -7.04733 0
-793.974 -6.90347 0
-792.331 -6.7607 0
-790.687 -6.61533 0
-789.043 -6.46606 0
-787.398 -6.31823 0
-785.749 -6.1676 0
-784.099 -6.01361 0
-782.449 -5.86531 0
-780.795 -5.71307 0
-779.141 -5.56308 0
-777.486 -5.41071 0
-775.831 -5.26165 0
-774.174 -5.11043 0
-772.517 -4.95955 0
-770.859 -4.81077 0
-769.2 -4.66448 0
-767.538 -4.51862 0
-765.874 -4.37256 0
-764.21 -4.22429 0
-762.547 -4.07967 0
-760.883 -3.93822 0
-759.217 -3.7994 0
-757.551 -3.66022 0
-755.885 -3.52753 0
-754.216 -3.39515 0
-752.547 -3.26449 0
-750.878 -3.1371 0
-749.21 -3.01191 0
-747.541 -2.889 0
-745.867 -2.77055 0
-744.195 -2.6524 0
-742.526 -2.53704 0
-740.851 -2.42608 0
-739.179 -2.32039 0
-737.505 -2.21261 0
-735.831 -2.1112 0
-734.159 -2.01087 0
-732.485 -1.91635 0
-730.811 -1.82457 0
-729.135 -1.73405 0
-727.46 -1.6484 0
-725.786 -1.56867 0
-724.11 -1.48839 0
-722.434 -1.41357 0
-720.76 -1.34076 0
-719.085 -1.27469 0
-717.409 -1.2125 0
-715.732 -1.15082 0
-714.059 -1.0931 0
-712.38 -1.03882 0
-710.706 -0.988274 0
-709.03 -0.940943 0
-707.355 -0.898335 0
-705.68 -0.856908 0
-704.005 -0.823961 0
-702.328 -0.791883 0
-700.651 -0.761157 0
-698.976 -0.734334 0
-697.302 -0.711581 0
-695.628 -0.69138 0
-693.954 -0.676322 0
-692.278 -0.66407 0
-690.605 -0.65033 0
-688.932 -0.640794 0
-687.261 -0.633984 0
-685.587 -0.635641 0
-683.913 -0.640549 0
-682.24 -0.643029 0
-680.566 -0.649581 0
-678.896 -0.659662 0
-677.225 -0.671108 0
-675.555 -0.684391 0
-673.887 -0.701764 0
-672.215 -0.718942 0
-670.543 -0.742711 0
-668.876 -0.767622 0
-667.207 -0.793995 0
-665.539 -0.824298 0
-663.872 -0.855454 0
-662.203 -0.886386 0
-660.539 -0.92104 0
-658.871 -0.958647 0
-657.204 -0.995793 0
-655.541 -1.0353 0
-653.873 -1.0778 0
-652.208 -1.11651 0
-650.541 -1.16139 0
-648.876 -1.20594 0
-647.208 -1.25398 0
-645.546 -1.30366 0
-643.881 -1.34722 0
-642.221 -1.39935 0
-640.558 -1.45132 0
-638.895 -1.49877 0
-637.232 -1.54895 0
-635.569 -1.60736 0
-633.908 -1.66364 0
-632.248 -1.71363 0
-630.587 -1.77182 0
-628.929 -1.82671 0
-627.27 -1.88252 0
-625.614 -1.94401 0
-623.953 -2.00173 0
-622.297 -2.05888 0
-620.638 -2.11857 0
-618.98 -2.1757 0
-617.321 -2.23133 0
-615.664 -2.28428 0
-614.006 -2.34528 0
-612.349 -2.40032 0
-610.692 -2.45906 0
-609.037 -2.51743 0
-607.382 -2.57456 0
-605.728 -2.63039 0
-604.071 -2.69153 0
-602.417 -2.74903 0
-600.762 -2.80412 0
-599.105 -2.85706 0
-597.454 -2.91102 0
-595.798 -2.96688 0
-594.148 -3.01864 0
-592.499 -3.07278 0
-590.845 -3.12344 0
-589.191 -3.1735 0
-587.538 -3.22458 0
-585.885 -3.27709 0
-584.234 -3.32675 0
-582.578 -3.37717 0
-580.928 -3.42021 0
-579.274 -3.47105 0
-577.619 -3.5138 0
-575.967 -3.55576 0
-574.319 -3.59906 0
-572.669 -3.6393 0
-571.019 -3.68668 0
-569.366 -3.72857 0
-567.717 -3.76661 0
-566.066 -3.80712 0
-564.418 -3.84179 0
-562.767 -3.87739 0
-561.115 -3.9169 0
-559.468 -3.94926 0
-557.818 -3.98014 0
-556.168 -4.01303 0
-554.519 -4.04634 0
-552.87 -4.07588 0
-551.218 -4.10326 0
-549.57 -4.12998 0
-547.921 -4.15597 0
-546.269 -4.18229 0
-544.618 -4.20448 0
-542.969 -4.22718 0
-541.316 -4.24935 0
-539.668 -4.26926 0
-538.016 -4.28889 0
-536.367 -4.30552 0
-534.717 -4.32216 0
-533.068 -4.33973 0
-531.417 -4.35829 0
-529.769 -4.36826 0
-528.117 -4.38103 0
-526.467 -4.3941 0
-524.817 -4.40351 0
-523.165 -4.41409 0
-521.515 -4.42834 0
-519.864 -4.43841 0
-518.215 -4.44347 0
-516.567 -4.44701 0
-514.918 -4.45179 0
-513.264 -4.45452 0
-511.613 -4.45817 0
-509.965 -4.45922 0
-508.314 -4.46087 0
-506.662 -4.46236 0
-505.01 -4.46283 0
-503.362 -4.46021 0
-501.713 -4.46227 0
-500.057 -4.4614 0
-498.401 -4.45788 0
-496.752 -4.45081 0
-495.099 -4.44946 0
-493.449 -4.43946 0
-491.796 -4.43557 0
-490.143 -4.42911 0
-488.493 -4.42025 0
-486.84 -4.41745 0
-485.186 -4.4077 0
-483.534 -4.39286 0
-481.879 -4.38396 0
-480.223 -4.37415 0
-478.571 -4.3627 0
-476.921 -4.34611 0
-475.265 -4.3323 0
-473.611 -4.32398 0
-471.96 -4.31523 0
-470.304 -4.29554 0
-468.651 -4.28506 0
-466.994 -4.27265 0
-465.339 -4.25514 0
-463.687 -4.24251 0
-462.033 -4.23079 0
-460.377 -4.21462 0
-458.719 -4.19577 0
-457.065 -4.18074 0
-455.413 -4.16612 0
-453.758 -4.14895 0
-452.1 -4.13279 0
-450.448 -4.11589 0
-448.792 -4.10117 0
-447.137 -4.08005 0
-445.482 -4.0655 0
-443.826 -4.04326 0
-442.17 -4.02872 0
-440.515 -4.01084 0
-438.858 -3.99076 0
-437.199 -3.97829 0
-435.539 -3.96168 0
-433.887 -3.9416 0
-432.233 -3.92851 0
-430.579 -3.91092 0
-428.92 -3.8925 0
-427.262 -3.87616 0
-425.602 -3.86447 0
-423.944 -3.8485 0
-422.285 -3.83178 0
-420.629 -3.81621 0
-418.975 -3.79783 0
-417.317 -3.78252 0
-415.659 -3.76072 0
-414.006 -3.74934 0
-412.348 -3.7384 0
-410.695 -3.71817 0
-409.035 -3.7026 0
-407.377 -3.6891 0
-405.718 -3.67224 0
-404.06 -3.66088 0
-402.403 -3.64 0
-400.749 -3.62778 0
-399.091 -3.6121 0
-397.434 -3.60266 0
-395.776 -3.58204 0
-394.116 -3.57442 0
-392.46 -3.55806 0
-390.798 -3.54551 0
-389.143 -3.53618 0
-387.484 -3.52018 0
-385.824 -3.50681 0
-384.171 -3.49476 0
-382.511 -3.48738 0
-380.854 -3.47376 0
-379.194 -3.45979 0
-377.536 -3.45076 0
-375.879 -3.43844 0
-374.218 -3.42931 0
-372.556 -3.42133 0
-370.902 -3.4166 0
-369.245 -3.40791 0
-367.584 -3.39918 0
-365.93 -3.39134 0
-364.271 -3.38774 0
-362.614 -3.38021 0
-360.958 -3.36986 0
-359.299 -3.36321 0
-357.644 -3.35739 0
-355.988 -3.35051 0
-354.331 -3.34122 0
-352.67 -3.33876 0
-351.012 -3.33166 0
-349.357 -3.3269 0
-347.697 -3.32303 0
-346.041 -3.31978 0
-344.384 -3.31847 0
-342.726 -3.31002 0
-341.067 -3.30634 0
-339.414 -3.29901 0
-337.752 -3.29682 0
-336.094 -3.293 0
-334.436 -3.29246 0
-332.78 -3.28816 0
-331.12 -3.2893 0
-329.465 -3.28623 0
-327.806 -3.2866 0
-326.153 -3.28671 0
-324.496 -3.2816 0
-322.839 -3.28375 0
-321.179 -3.28367 0
-319.521 -3.2832 0
-317.869 -3.28551 0
-316.208 -3.28262 0
-314.553 -3.28533 0
-312.897 -3.28583 0
-311.236 -3.2855 0
-309.58 -3.28697 0
-307.923 -3.29202 0
-306.263 -3.29541 0
-304.609 -3.29437 0
-302.952 -3.29628 0
-301.291 -3.29687 0
-299.636 -3.29618 0
-297.979 -3.29399 0
-296.324 -3.29635 0
-294.665 -3.30055 0
-293.01 -3.3049 0
-291.349 -3.31347 0
-289.69 -3.31357 0
-288.036 -3.31969 0
-286.383 -3.31993 0
-284.728 -3.32019 0
-283.071 -3.32522 0
-281.413 -3.32439 0
-279.756 -3.33339 0
-278.099 -3.33458 0
-276.445 -3.33738 0
-274.79 -3.34385 0
-273.133 -3.34401 0
-271.478 -3.34284 0
-269.819 -3.35128 0
-268.163 -3.35454 0
-266.506 -3.35934 0
-264.854 -3.36592 0
-263.196 -3.369 0
-261.538 -3.36837 0
-259.879 -3.37202 0
-258.224 -3.37776 0
-256.569 -3.38142 0
-254.912 -3.38564 0
-253.256 -3.39331 0
-251.603 -3.39473 0
-249.946 -3.39355 0
-248.289 -3.39949 0
-246.633 -3.40892 0
-244.979 -3.41058 0
-243.321 -3.41705 0
-241.666 -3.41147 0
-240.009 -3.41982 0
-238.354 -3.41828 0
-236.697 -3.42666 0
-235.042 -3.433 0
-233.387 -3.43459 0
-231.736 -3.43826 0
-230.083 -3.4376 0
-228.428 -3.44123 0
-226.776 -3.44028 0
-225.118 -3.4485 0
-223.46 -3.44909 0
-221.804 -3.44877 0
-220.148 -3.45054 0
-218.495 -3.4544 0
-216.84 -3.4527 0
-215.182 -3.45601 0
-213.53 -3.46061 0
-211.872 -3.45897 0
-210.217 -3.4591 0
-208.559 -3.46685 0
-206.906 -3.4706 0
-205.25 -3.47114 0
-203.593 -3.47317 0
-201.942 -3.47956 0
-200.286 -3.4819 0
-198.63 -3.48317 0
-196.974 -3.48453 0
-195.319 -3.487 0
-193.662 -3.48702 0
-192.011 -3.48422 0
-190.354 -3.49155 0
-188.697 -3.48581 0
-187.042 -3.48456 0
-185.389 -3.49311 0
-183.734 -3.49338 0
-182.073 -3.49646 0
-180.42 -3.49619 0
-178.77 -3.49873 0
-177.116 -3.49902 0
-175.461 -3.50261 0
-173.81 -3.50021 0
-172.154 -3.49894 0
-170.497 -3.50184 0
-168.842 -3.49278 0
-167.189 -3.49597 0
-165.537 -3.49616 0
-163.88 -3.48887 0
-162.225 -3.48595 0
-160.566 -3.48828 0
-158.912 -3.48862 0
-157.259 -3.48913 0
-155.602 -3.48945 0
-153.944 -3.48689 0
-152.291 -3.48225 0
-150.634 -3.48595 0
-148.979 -3.48074 0
-147.32 -3.48415 0
-145.665 -3.48145 0
-144.013 -3.4799 0
-142.358 -3.48406 0
-140.705 -3.48337 0
-139.053 -3.47612 0
-137.402 -3.47196 0
-135.743 -3.46645 0
-134.09 -3.4686 0
-132.434 -3.47097 0
-130.78 -3.46887 0
-129.119 -3.46421 0
-127.464 -3.45714 0
-125.809 -3.45529 0
-124.155 -3.44912 0
-122.499 -3.44287 0
-120.845 -3.44224 0
-119.187 -3.43894 0
-117.529 -3.43372 0
-115.877 -3.43489 0
-114.221 -3.43222 0
-112.566 -3.43025 0
-110.908 -3.4314 0
-109.255 -3.43408 0
-107.597 -3.43062 0
-105.948 -3.42769 0
-104.298 -3.42484 0
-102.644 -3.41733 0
-100.986 -3.41634 0
-99.33 -3.41163 0
-97.6747 -3.40654 0
-96.0175 -3.40366 0
-94.3621 -3.40208 0
-92.7088 -3.40007 0
-91.0524 -3.39146 0
-89.4006 -3.39056 0
-87.7457 -3.39105 0
-86.0854 -3.3911 0
-84.4253 -3.3914 0
-82.7695 -3.38999 0
-81.1132 -3.38793 0
-79.4645 -3.38213 0
-77.8069 -3.37642 0
-76.1567 -3.38228 0
-74.5026 -3.38095 0
-72.846 -3.37703 0
-71.1862 -3.37497 0
-69.5272 -3.36958 0
-67.8695 -3.36737 0
-66.2164 -3.36303 0
-64.5592 -3.36115 0
-62.9032 -3.35653 0
-61.247 -3.35229 0
-59.5898 -3.34921 0
-57.9342 -3.34647 0
-56.28 -3.34723 0
-54.6225 -3.34321 0
-52.9706 -3.34027 0
-51.3171 -3.34183 0
-49.6615 -3.33815 0
-48.002 -3.33108 0
-46.3477 -3.32771 0
-44.691 -3.32465 0
-43.0356 -3.32607 0
-41.3809 -3.3272 0
-39.7279 -3.32644 0
-38.0738 -3.32006 0
-36.418 -3.31962 0
-34.7605 -3.31505 0
-33.1047 -3.31405 0
-31.4468 -3.31336 0
-29.7905 -3.31548 0
-28.1406 -3.3161 0
-26.4828 -3.31247 0
-24.8328 -3.31678 0
-23.1775 -3.31375 0
-21.5198 -3.30859 0
-19.862 -3.3074 0
-18.2082 -3.30306 0
-16.5567 -3.3053 0
-14.8977 -3.30279 0
-13.2448 -3.30449 0
-11.5911 -3.30751 0
-9.93529 -3.30937 0
-8.27706 -3.30448 0
-6.62427 -3.30258 0
-4.96867 -3.30365 0
-3.31111 -3.30253 0
-1.65661 -3.30146 0
0 -3.30448 0
-1114.33 171.399 0
-1114.1 158.081 0
-1114.02 145.095 0
-1113.92 132.325 0
-1113.75 119.807 0
-1113.52 107.567 0
-1113.22 95.675 0
-1112.86 84.1882 0
-1112.44 73.179 0
-1111.98 62.6809 0
-1111.49 52.7145 0
-1110.95 43.3127 0
-1110.37 34.4865 0
-1109.74 26.2357 0
-1109.09 18.5777 0
-1108.5 11.4212 0
-1107.95 4.70445 0
-1107.45 -1.60805 0
-1106.94 -7.56239 0
-1106.41 -13.1343 0
-1105.86 -18.3131 0
-1105.29 -23.0939 0
-1104.72 -27.4796 0
-1104.13 -31.4715 0
-1103.54 -35.0727 0
-1102.94 -38.2935 0
-1102.33 -41.1502 0
-1101.72 -43.6554 0
-1101.09 -45.8138 0
-1100.45 -47.6586 0
-1099.79 -49.197 0
-1099.11 -50.4496 0
-1098.42 -51.4323 0
-1097.7 -52.1606 0
-1096.95 -52.6571 0
-1096.18 -52.9345 0
-1095.38 -53.0055 0
-1094.54 -52.8884 0
-1093.67 -52.5896 0
-1092.77 -52.1314 0
-1091.83 -51.5184 0
-1090.87 -50.768 0
-1089.86 -49.89 0
-1088.83 -48.8923 0
-1087.76 -47.7844 0
-1086.65 -46.5836 0
-1085.52 -45.2956 0
-1084.35 -43.9243 0
-1083.15 -42.4781 0
-1081.92 -40.9754 0
-1080.65 -39.415 0
-1079.36 -37.809 0
-1078.04 -36.165 0
-1076.69 -34.4897 0
-1075.32 -32.7854 0
-1073.91 -31.0615 0
-1072.49 -29.3265 0
-1071.03 -27.5781 0
-1069.55 -25.816 0
-1068.05 -24.0588 0
-1066.52 -22.3003 0
-1064.97 -20.5511 0
-1063.41 -18.8106 0
-1061.82 -17.0884 0
-1060.21 -15.3839 0
-1058.59 -13.6975 0
-1056.94 -12.0375 0
-1055.29 -10.4037 0
-1053.61 -8.79628 0
-1051.92 -7.21559 0
-1050.22 -5.6698 0
-1048.5 -4.15768 0
-1046.77 -2.68495 0
-1045.03 -1.24914 0
-1043.27 0.14779 0
-1041.51 1.50311 0
-1039.74 2.81881 0
-1037.95 4.09341 0
-1036.16 5.32257 0
-1034.36 6.50658 0
-1032.55 7.65055 0
-1030.74 8.748 0
-1028.92 9.80161 0
-1027.1 10.8068 0
-1025.27 11.7667 0
-1023.43 12.6798 0
-1021.6 13.5501 0
-1019.76 14.3702 0
-1017.91 15.1446 0
-1016.07 15.8721 0
-1014.22 16.5555 0
-1012.37 17.1918 0
-1010.52 17.7844 0
-1008.67 18.3315 0
-1006.82 18.835 0
-1004.97 19.2959 0
-1003.12 19.7157 0
-1001.27 20.0876 0
-999.425 20.4194 0
-997.578 20.7091 0
-995.732 20.9589 0
-993.889 21.169 0
-992.047 21.3424 0
-990.208 21.4796 0
-988.372 21.5752 0
-986.539 21.6369 0
-984.71 21.6638 0
-982.884 21.6539 0
-981.063 21.61 0