<?xml version="1.0"?>
<VTKFile type="StructuredGrid"  version="0.1" byte_order="LittleEndian" compressor="vtkZLibDataCompressor">
  <StructuredGrid WholeExtent="0 700 0 30 0 0">
    <Piece Extent="0 700 0 30 0 0">
      <PointData Vectors="Velocity">
        <DataArray type="Float32" Name="Velocity" NumberOfComponents="3" format="ascii">
-1034.09 77.0883 0
-1034.63 68.4447 0
-1035.21 59.9328 0
-1035.8 51.6342 0
-1036.43 43.6111 0
-1037.1 35.9467 0
-1037.81 28.7176 0
-1038.52 21.9653 0
-1039.21 15.7148 0
-1039.87 9.9854 0
-1040.49 4.79453 0
-1041.04 0.159264 0
-1041.5 -3.93142 0
-1041.82 -7.57419 0
-1041.97 -10.9691 0
-1042.22 -14.1291 0
-1042.48 -16.9465 0
-1042.72 -19.3871 0
-1042.92 -21.4581 0
-1043.09 -23.1728 0
-1043.21 -24.5453 0
-1043.27 -25.6004 0
-1043.27 -26.3687 0
-1043.2 -26.8717 0
-1043.04 -27.1427 0
-1042.8 -27.2067 0
-1042.48 -27.0885 0
-1042.08 -26.8095 0
-1041.59 -26.3886 0
-1041.03 -25.8456 0
-1040.4 -25.1961 0
-1039.69 -24.4555 0
-1038.91 -23.6348 0
-1038.06 -22.75 0
-1037.15 -21.8109 0
-1036.17 -20.8288 0
-1035.14 -19.8153 0
-1034.05 -18.7772 0
-1032.91 -17.7245 0
-1031.72 -16.6622 0
-1030.47 -15.5989 0
-1029.19 -14.54 0
-1027.86 -13.4923 0
-1026.5 -12.4606 0
-1025.1 -11.4455 0
-1023.66 -10.4548 0
-1022.2 -9.49085 0
-1020.7 -8.55606 0
-1019.17 -7.65413 0
-1017.63 -6.7863 0
-1016.05 -5.95513 0
-1014.46 -5.16179 0
-1012.85 -4.4076 0
-1011.22 -3.69098 0
-1009.58 -3.01791 0
-1007.92 -2.38482 0
-1006.25 -1.79474 0
-1004.57 -1.2441 0
-1002.87 -0.735791 0
-1001.17 -0.266681 0
-999.467 0.160513 0
-997.754 0.547372 0
-996.035 0.893707 0
-994.313 1.20161 0
-992.589 1.47163 0
-990.863 1.70411 0
-989.135 1.90228 0
-987.409 2.06543 0
-985.682 2.19273 0
-983.957 2.2894 0
-982.234 2.35434 0
-980.514 2.38901 0
-978.796 2.39751 0
-977.082 2.37673 0
-975.374 2.33065 0
-973.668 2.26024 0
-971.97 2.16694 0
-970.276 2.0523 0
-968.587 1.91718 0
-966.905 1.76545 0
-965.228 1.59475 0
-963.559 1.40899 0
-961.897 1.20871 0
-960.24 0.996219 0
-958.591 0.772681 0
-956.947 0.539351 0
-955.311 0.296013 0
-953.681 0.0443362 0
-952.058 -0.213548 0
-950.441 -0.474555 0
-948.833 -0.74246 0
-947.23 -1.0119 0
-945.635 -1.28376 0
-944.045 -1.55662 0
-942.461 -1.82823 0
-940.884 -2.10087 0
-939.31 -2.3705 0
-937.744 -2.63742 0
-936.183 -2.89982 0
-934.626 -3.15783 0
-933.076 -3.41249 0
-931.529 -3.66159 0
-929.986 -3.90177 0
-928.448 -4.13771 0
-926.913 -4.36365 0
-925.383 -4.58166 0
-923.855 -4.79264 0
-922.33 -4.99416 0
-920.81 -5.18829 0
-919.29 -5.37092 0
-917.773 -5.54563 0
-916.258 -5.71109 0
-914.744 -5.86558 0
-913.233 -6.01237 0
-911.721 -6.14721 0
-910.212 -6.27124 0
-908.705 -6.38632 0
-907.197 -6.49104 0
-905.691 -6.58533 0
-904.184 -6.66782 0
-902.677 -6.74362 0
-901.169 -6.80797 0
-899.662 -6.8648 0
-898.154 -6.91205 0
-896.645 -6.94896 0
-895.135 -6.97856 0
-893.627 -7.00165 0
-892.116 -7.01416 0
-890.604 -7.01928 0
-889.091 -7.01561 0
-887.576 -7.00522 0
-886.059 -6.98768 0
-884.542 -6.96424 0
-883.023 -6.93349 0
-881.503 -6.89855 0
-879.979 -6.85846 0
-878.455 -6.81058 0
-876.929 -6.75882 0
-875.4 -6.70188 0
-873.872 -6.63987 0
-872.34 -6.57455 0
-870.807 -6.50871 0
-869.271 -6.43632 0
-867.735 -6.36244 0
-866.198 -6.28753 0
-864.657 -6.20637 0
-863.114 -6.12834 0
-861.57 -6.04699 0
-860.024 -5.96244 0
-858.477 -5.88065 0
-856.928 -5.79365 0
-855.377 -5.70827 0
-853.822 -5.62352 0
-852.27 -5.53473 0
-850.713 -5.45107 0
-849.158 -5.36598 0
-847.6 -5.28365 0
-846.039 -5.19975 0
-844.481 -5.11828 0
-842.921 -5.03834 0
-841.357 -4.95707 0
-839.793 -4.87978 0
-838.227 -4.80319 0
-836.663 -4.72844 0
-835.096 -4.65662 0
-833.529 -4.58605 0
-831.958 -4.52203 0
-830.388 -4.45689 0
-828.819 -4.39659 0
-827.249 -4.33565 0
-825.677 -4.27948 0
-824.107 -4.22416 0
-822.536 -4.17234 0
-820.962 -4.12431 0
-819.391 -4.07941 0
-817.818 -4.03587 0
-816.244 -3.99521 0
-814.669 -3.95721 0
-813.094 -3.92307 0
-811.523 -3.89276 0
-809.947 -3.85992 0
-808.373 -3.83634 0
-806.799 -3.81426 0
-805.225 -3.79317 0
-803.653 -3.77663 0
-802.081 -3.76132 0
-800.508 -3.74966 0
-798.934 -3.73856 0
-797.36 -3.73091 0
-795.791 -3.72623 0
-794.219 -3.72442 0
-792.648 -3.72075 0
-791.076 -3.72339 0
-789.505 -3.72909 0
-787.933 -3.7352 0
-786.363 -3.74141 0
-784.792 -3.75224 0
-783.222 -3.76136 0
-781.655 -3.77388 0
-780.087 -3.79047 0
-778.52 -3.80486 0
-776.952 -3.8225 0
-775.385 -3.84123 0
-773.82 -3.86228 0
-772.254 -3.88351 0
-770.69 -3.90602 0
-769.126 -3.92739 0
-767.561 -3.95145 0
-765.998 -3.97695 0
-764.435 -4.00083 0
-762.87 -4.02395 0
-761.307 -4.05009 0
-759.745 -4.07584 0
-758.187 -4.10577 0
-756.625 -4.13569 0
-755.065 -4.16291 0
-753.506 -4.18949 0
-751.946 -4.21625 0
-750.386 -4.24336 0
-748.828 -4.27204 0
-747.27 -4.30126 0
-745.711 -4.32788 0
-744.155 -4.35822 0
-742.597 -4.38286 0
-741.038 -4.40842 0
-739.484 -4.4344 0
-737.928 -4.46194 0
-736.374 -4.48795 0
-734.817 -4.50913 0
-733.264 -4.53383 0
-731.708 -4.55521 0
-730.152 -4.57692 0
-728.599 -4.59738 0
-727.042 -4.61879 0
-725.486 -4.64124 0
-723.931 -4.66172 0
-722.379 -4.68004 0
-720.824 -4.69581 0
-719.273 -4.71517 0
-717.722 -4.72955 0
-716.167 -4.74404 0
-714.613 -4.75951 0
-713.062 -4.77392 0
-711.51 -4.78438 0
-709.96 -4.79689 0
-708.405 -4.80879 0
-706.853 -4.8204 0
-705.3 -4.82496 0
-703.746 -4.83669 0
-702.193 -4.84032 0
-700.638 -4.8477 0
-699.087 -4.85499 0
-697.533 -4.86193 0
-695.979 -4.86577 0
-694.424 -4.86835 0
-692.872 -4.87031 0
-691.319 -4.87038 0
-689.766 -4.87337 0
-688.216 -4.87286 0
-686.662 -4.87188 0
-685.107 -4.87516 0
-683.55 -4.87273 0
-681.996 -4.86954 0
-680.443 -4.86862 0
-678.888 -4.86405 0
-677.335 -4.86035 0
-675.782 -4.85594 0
-674.226 -4.85231 0
-672.672 -4.84948 0
-671.115 -4.84473 0
-669.563 -4.83584 0
-668.007 -4.82925 0
-666.454 -4.82203 0
-664.896 -4.81393 0
-663.341 -4.80813 0
-661.783 -4.79821 0
-660.228 -4.79342 0
-658.671 -4.78635 0
-657.115 -4.77824 0
-655.559 -4.76848 0
-654.002 -4.7625 0
-652.445 -4.75206 0
-650.889 -4.74103 0
-649.334 -4.73492 0
-647.778 -4.72639 0
-646.219 -4.71939 0
-644.661 -4.70741 0
-643.105 -4.69936 0
-641.55 -4.69295 0
-639.99 -4.68209 0
-638.43 -4.67545 0
-636.871 -4.66773 0
-635.315 -4.65694 0
-633.756 -4.64694 0
-632.197 -4.64073 0
-630.637 -4.63331 0
-629.078 -4.623 0
-627.524 -4.61701 0
-625.966 -4.60383 0
-624.408 -4.59687 0
-622.845 -4.58835 0
-621.288 -4.58512 0
-619.728 -4.57837 0
-618.171 -4.57208 0
-616.612 -4.56773 0
-615.057 -4.55906 0
-613.495 -4.55546 0
-611.934 -4.54815 0
-610.378 -4.54259 0
-608.82 -4.53404 0
-607.265 -4.53326 0
-605.702 -4.52438 0
-604.143 -4.51836 0
-602.584 -4.51577 0
-601.021 -4.50723 0
-599.458 -4.50756 0
-597.901 -4.50049 0
-596.344 -4.49828 0
-594.783 -4.49541 0
-593.224 -4.49024 0
-591.664 -4.49122 0
-590.106 -4.49351 0
-588.547 -4.4905 0
-586.986 -4.48624 0
-585.427 -4.47985 0
-583.867 -4.47851 0
-582.309 -4.47789 0
-580.75 -4.47598 0
-579.192 -4.47746 0
-577.632 -4.47663 0
-576.073 -4.4776 0
-574.52 -4.47949 0
-572.961 -4.47602 0
-571.398 -4.47527 0
-569.837 -4.47934 0
-568.282 -4.48182 0
-566.722 -4.48475 0
-565.163 -4.48359 0
-563.605 -4.48537 0
-562.042 -4.47974 0
-560.486 -4.48638 0
-558.928 -4.49187 0
-557.365 -4.49011 0
-555.808 -4.49349 0
-554.25 -4.49758 0
-552.695 -4.50033 0
-551.136 -4.50117 0
-549.578 -4.50466 0
-548.019 -4.50663 0
-546.461 -4.50591 0
-544.901 -4.50908 0
-543.347 -4.51343 0
-541.789 -4.51702 0
-540.229 -4.52021 0
-538.671 -4.52413 0
-537.115 -4.52486 0
-535.554 -4.52988 0
-533.999 -4.53219 0
-532.439 -4.53619 0
-530.88 -4.53476 0
-529.324 -4.54207 0
-527.769 -4.54624 0
-526.209 -4.54949 0
-524.653 -4.55171 0
-523.095 -4.55081 0
-521.535 -4.55363 0
-519.98 -4.56037 0
-518.425 -4.55944 0
-516.87 -4.56035 0
-515.31 -4.56764 0
-513.752 -4.56762 0
-512.196 -4.57413 0
-510.636 -4.57538 0
-509.083 -4.58049 0
-507.523 -4.58 0
-505.962 -4.58119 0
-504.404 -4.58485 0
-502.851 -4.59086 0
-501.292 -4.58954 0
-499.739 -4.58992 0
-498.181 -4.59586 0
-496.627 -4.59898 0
-495.066 -4.59906 0
-493.509 -4.60187 0
-491.949 -4.60444 0
-490.393 -4.60891 0
-488.836 -4.61253 0
-487.279 -4.611 0
-485.722 -4.60977 0
-484.164 -4.61464 0
-482.609 -4.61421 0
-481.052 -4.61326 0
-479.494 -4.6112 0
-477.937 -4.61261 0
-476.378 -4.61352 0
-474.821 -4.61707 0
-473.264 -4.61839 0
-471.708 -4.62002 0
-470.152 -4.61812 0
-468.595 -4.61801 0
-467.038 -4.62126 0
-465.481 -4.61941 0
-463.927 -4.61849 0
-462.364 -4.62362 0
-460.808 -4.62421 0
-459.256 -4.6243 0
-457.694 -4.62145 0
-456.138 -4.62416 0
-454.583 -4.62482 0
-453.031 -4.62227 0
-451.472 -4.61909 0
-449.914 -4.62212 0
-448.357 -4.62233 0
-446.798 -4.61735 0
-445.241 -4.61478 0
-443.685 -4.61881 0
-442.13 -4.61592 0
-440.57 -4.6158 0
-439.013 -4.61665 0
-437.457 -4.61492 0
-435.898 -4.61561 0
-434.341 -4.61409 0
-432.785 -4.61273 0
-431.23 -4.61375 0
-429.674 -4.61269 0
-428.112 -4.61327 0
-426.553 -4.61003 0
-425.001 -4.607 0
-423.444 -4.6123 0
-421.881 -4.61203 0
-420.323 -4.6096 0
-418.764 -4.60465 0
-417.209 -4.60519 0
-415.651 -4.60763 0
-414.097 -4.60548 0
-412.538 -4.60296 0
-410.979 -4.60068 0
-409.421 -4.60508 0
-407.866 -4.60071 0
-406.309 -4.60337 0
-404.749 -4.60561 0
-403.192 -4.60242 0
-401.639 -4.60095 0
-400.075 -4.5996 0
-398.522 -4.60183 0
-396.967 -4.60142 0
-395.41 -4.59731 0
-393.855 -4.59835 0
-392.3 -4.59608 0
-390.74 -4.59454 0
-389.183 -4.58898 0
-387.627 -4.59107 0
-386.067 -4.59157 0
-384.509 -4.58893 0
-382.951 -4.59175 0
-381.396 -4.58749 0
-379.838 -4.58645 0
-378.286 -4.59088 0
-376.729 -4.58723 0
-375.172 -4.58893 0
-373.618 -4.58919 0
-372.057 -4.58751 0
-370.5 -4.58878 0
-368.938 -4.58513 0
-367.381 -4.58538 0
-365.82 -4.58449 0
-364.265 -4.59465 0
-362.712 -4.58764 0
-361.152 -4.5908 0
-359.596 -4.58973 0
-358.043 -4.59012 0
-356.488 -4.58374 0
-354.929 -4.5877 0
-353.371 -4.58886 0
-351.814 -4.58695 0
-350.26 -4.58585 0
-348.7 -4.58766 0
-347.141 -4.58977 0
-345.584 -4.58728 0
-344.029 -4.59338 0
-342.471 -4.58495 0
-340.91 -4.58831 0
-339.353 -4.58617 0
-337.795 -4.58492 0
-336.239 -4.58581 0
-334.683 -4.58585 0
-333.126 -4.58325 0
-331.57 -4.58581 0
-330.014 -4.58382 0
-328.456 -4.58166 0
-326.897 -4.58315 0
-325.339 -4.58282 0
-323.78 -4.5834 0
-322.221 -4.58844 0
-320.67 -4.58454 0
-319.117 -4.58809 0
-317.554 -4.58644 0
-315.994 -4.58734 0
-314.438 -4.58852 0
-312.881 -4.58282 0
-311.324 -4.58584 0
-309.767 -4.58881 0
-308.213 -4.58684 0
-306.655 -4.59052 0
-305.096 -4.58894 0
-303.54 -4.59441 0
-301.984 -4.59069 0
-300.431 -4.59161 0
-298.874 -4.59077 0
-297.317 -4.59039 0
-295.759 -4.59263 0
-294.201 -4.59382 0
-292.643 -4.59585 0
-291.087 -4.59413 0
-289.53 -4.59596 0
-287.973 -4.59058 0
-286.417 -4.5897 0
-284.861 -4.58836 0
-283.304 -4.58432 0
-281.745 -4.59289 0
-280.188 -4.59507 0
-278.633 -4.59645 0
-277.076 -4.59505 0
-275.517 -4.59772 0
-273.961 -4.5933 0
-272.404 -4.59266 0
-270.849 -4.59375 0
-269.293 -4.58964 0
-267.735 -4.59044 0
-266.178 -4.59441 0
-264.618 -4.59402 0
-263.058 -4.59688 0
-261.505 -4.59982 0
-259.949 -4.5984 0
-258.391 -4.59708 0
-256.832 -4.59586 0
-255.275 -4.59878 0
-253.718 -4.59588 0
-252.162 -4.59429 0
-250.609 -4.59543 0
-249.05 -4.58987 0
-247.497 -4.59263 0
-245.941 -4.59387 0
-244.379 -4.59516 0
-242.824 -4.59129 0
-241.262 -4.59274 0
-239.707 -4.5932 0
-238.151 -4.59877 0
-236.597 -4.59343 0
-235.043 -4.59396 0
-233.486 -4.58896 0
-231.928 -4.59032 0
-230.371 -4.59291 0
-228.815 -4.59376 0
-227.259 -4.5932 0
-225.7 -4.58924 0
-224.142 -4.58939 0
-222.585 -4.58774 0
-221.031 -4.59036 0
-219.474 -4.59392 0
-217.915 -4.58897 0
-216.361 -4.58863 0
-214.805 -4.58791 0
-213.247 -4.58592 0
-211.69 -4.58799 0
-210.132 -4.59448 0
-208.576 -4.59524 0
-207.02 -4.5939 0
-205.463 -4.59799 0
-203.907 -4.5958 0
-202.349 -4.59548 0
-200.794 -4.59441 0
-199.235 -4.59684 0
-197.677 -4.59351 0
-196.123 -4.59763 0
-194.563 -4.59622 0
-193.008 -4.59373 0
-191.448 -4.59339 0
-189.891 -4.59443 0
-188.338 -4.59462 0
-186.785 -4.59124 0
-185.229 -4.59247 0
-183.67 -4.5934 0
-182.115 -4.59735 0
-180.558 -4.59497 0
-179 -4.59554 0
-177.442 -4.59454 0
-175.885 -4.59536 0
-174.328 -4.59546 0
-172.772 -4.59582 0
-171.214 -4.59722 0
-169.657 -4.59318 0
-168.102 -4.59881 0
-166.548 -4.60002 0
-164.989 -4.5978 0
-163.434 -4.59508 0
-161.878 -4.59446 0
-160.319 -4.59789 0
-158.764 -4.59464 0
-157.202 -4.59477 0
-155.645 -4.593 0
-154.09 -4.5936 0
-152.533 -4.59564 0
-150.977 -4.58973 0
-149.421 -4.59202 0
-147.868 -4.59302 0
-146.312 -4.59288 0
-144.755 -4.59007 0
-143.193 -4.59035 0
-141.639 -4.59337 0
-140.08 -4.59072 0
-138.517 -4.59021 0
-136.963 -4.58978 0
-135.41 -4.59102 0
-133.853 -4.59059 0
-132.297 -4.58909 0
-130.74 -4.59196 0
-129.185 -4.59423 0
-127.632 -4.58952 0
-126.077 -4.5909 0
-124.516 -4.58799 0
-122.963 -4.58604 0
-121.408 -4.58584 0
-119.846 -4.59174 0
-118.289 -4.58626 0
-116.736 -4.58688 0
-115.176 -4.58488 0
-113.621 -4.58874 0
-112.062 -4.59158 0
-110.508 -4.59291 0
-108.95 -4.58913 0
-107.393 -4.5924 0
-105.835 -4.58913 0
-104.279 -4.58857 0
-102.723 -4.58785 0
-101.165 -4.5902 0
-99.6091 -4.5838 0
-98.0579 -4.58272 0
-96.4973 -4.58879 0
-94.9389 -4.59076 0
-93.3832 -4.59056 0
-91.8274 -4.58888 0
-90.269 -4.58736 0
-88.7086 -4.59167 0
-87.1545 -4.59093 0
-85.5968 -4.58737 0
-84.0398 -4.58829 0
-82.4851 -4.58771 0
-80.9273 -4.59192 0
-79.3714 -4.58741 0
-77.8191 -4.58859 0
-76.2636 -4.59052 0
-74.7041 -4.59361 0
-73.1524 -4.59279 0
-71.597 -4.59488 0
-70.0402 -4.5962 0
-68.4783 -4.5908 0
-66.925 -4.59344 0
-65.3666 -4.59109 0
-63.8121 -4.59221 0
-62.2536 -4.59565 0
-60.6982 -4.59264 0
-59.1423 -4.59043 0
-57.5845 -4.5924 0
-56.0315 -4.5946 0
-54.4756 -4.58909 0
-52.9181 -4.59151 0
-51.3601 -4.59519 0
-49.8041 -4.59734 0
-48.2437 -4.5932 0
-46.6917 -4.59105 0
-45.1358 -4.59403 0
-43.5783 -4.5935 0
-42.0219 -4.59129 0
-40.4698 -4.59382 0
-38.9141 -4.59616 0
-37.354 -4.59424 0
-35.7979 -4.5932 0
-34.2384 -4.59282 0
-32.6799 -4.58905 0
-31.1266 -4.59094 0
-29.5698 -4.59278 0
-28.015 -4.59734 0
-26.461 -4.59693 0
-24.9035 -4.59354 0
-23.3471 -4.59433 0
-21.789 -4.5899 0
-20.2325 -4.58644 0
-18.674 -4.59258 0
-17.1187 -4.59299 0
-15.5658 -4.59488 0
-14.0091 -4.59365 0
-12.4519 -4.59516 0
-10.8913 -4.59477 0
-9.33464 -4.59594 0
-7.78017 -4.59379 0
-6.22787 -4.59038 0
-4.66708 -4.59228 0
-3.11042 -4.59481 0
-1.55355 -4.59589 0
0 -4.59625 0
-1042.74 77.6498 0
-1043.16 68.9479 0
-1043.58 60.3991 0
-1043.97 52.0665 0
-1044.31 43.9946 0
-1044.61 36.265 0
-1044.86 28.9675 0
-1045.07 22.1561 0
-1045.23 15.859 0
-1045.34 10.1014 0
-1045.39 4.89661 0
-1045.36 0.259673 0
-1045.3 -3.8247 0
-1045.27 -7.46501 0
-1045.32 -10.8673 0
-1045.27 -14.0415 0
-1045.16 -16.8649 0
-1045.03 -19.3099 0
-1044.88 -21.3783 0
-1044.69 -23.0806 0
-1044.48 -24.4308 0
-1044.24 -25.4521 0
-1043.95 -26.1741 0
-1043.62 -26.6239 0
-1043.24 -26.8339 0
-1042.8 -26.8332 0
-1042.3 -26.6476 0
-1041.74 -26.3008 0
-1041.13 -25.8115 0
-1040.45 -25.2015 0
-1039.72 -24.4862 0
-1038.92 -23.6794 0
-1038.07 -22.7964 0
-1037.16 -21.8511 0
-1036.2 -20.8534 0
-1035.19 -19.8168 0
-1034.13 -18.7485 0
-1033.02 -17.6603 0
-1031.87 -16.5601 0
-1030.67 -15.4519 0
-1029.44 -14.3462 0
-1028.16 -13.2476 0
-1026.85 -12.1615 0
-1025.5 -11.0943 0
-1024.12 -10.0475 0
-1022.71 -9.02611 0
-1021.27 -8.03303 0
-1019.81 -7.07272 0
-1018.32 -6.14675 0
-1016.8 -5.25776 0
-1015.27 -4.405 0
-1013.71 -3.5932 0
-1012.14 -2.82239 0
-1010.55 -2.09124 0
-1008.95 -1.40375 0
-1007.33 -0.758822 0
-1005.7 -0.157107 0
-1004.06 0.401834 0
-1002.41 0.919495 0
-1000.75 1.3946 0
-999.079 1.82793 0
-997.405 2.21968 0
-995.726 2.57039 0
-994.042 2.88129 0
-992.354 3.15344 0
-990.662 3.38736 0
-988.97 3.58557 0
-987.276 3.74749 0
-985.581 3.87572 0
-983.886 3.97035 0
-982.193 4.03268 0
-980.501 4.06599 0
-978.81 4.07032 0
-977.122 4.04629 0
-975.437 3.99668 0
-973.755 3.92155 0
-972.077 3.8244 0
-970.403 3.70482 0
-968.733 3.56433 0
-967.067 3.40663 0
-965.408 3.23102 0
-963.752 3.03938 0
-962.102 2.83318 0
-960.458 2.61525 0
-958.818 2.38531 0
-957.184 2.14563 0
-955.555 1.89667 0
-953.932 1.63866 0
-952.315 1.37479 0
-950.705 1.10694 0
-949.099 0.833772 0
-947.498 0.558915 0
-945.903 0.281993 0
-944.313 0.00365041 0
-942.728 -0.274798 0
-941.149 -0.551544 0
-939.574 -0.826937 0
-938.004 -1.09806 0
-936.439 -1.36595 0
-934.878 -1.62915 0
-933.322 -1.88687 0
-931.77 -2.13862 0
-930.221 -2.38346 0
-928.675 -2.62228 0
-927.133 -2.85288 0
-925.593 -3.07463 0
-924.057 -3.28697 0
-922.524 -3.49228 0
-920.992 -3.68889 0
-919.465 -3.87345 0
-917.939 -4.04993 0
-916.414 -4.21742 0
-914.891 -4.37406 0
-913.37 -4.52021 0
-911.85 -4.65612 0
-910.33 -4.78152 0
-908.812 -4.8976 0
-907.295 -5.00326 0
-905.778 -5.09852 0
-904.262 -5.18132 0
-902.745 -5.25653 0
-901.229 -5.32157 0
-899.712 -5.37754 0
-898.194 -5.42372 0
-896.677 -5.46063 0
-895.16 -5.49027 0
-893.643 -5.51165 0
-892.124 -5.52305 0
-890.603 -5.52698 0
-889.083 -5.5219 0
-887.56 -5.50999 0
-886.038 -5.49235 0
-884.514 -5.46719 0
-882.99 -5.43606 0
-881.464 -5.39901 0
-879.936 -5.35531 0
-878.406 -5.30702 0
-876.875 -5.25224 0
-875.343 -5.19623 0
-873.809 -5.13247 0
-872.274 -5.06588 0
-870.738 -4.99715 0
-869.2 -4.92426 0
-867.661 -4.84949 0
-866.119 -4.77038 0
-864.578 -4.69056 0
-863.034 -4.60738 0
-861.488 -4.52613 0
-859.941 -4.44029 0
-858.392 -4.35563 0
-856.843 -4.26887 0
-855.291 -4.18198 0
-853.738 -4.09311 0
-852.185 -4.00508 0
-850.631 -3.91948 0
-849.074 -3.8347 0
-847.517 -3.74966 0
-845.959 -3.66538 0
-844.4 -3.5833 0
-842.841 -3.50147 0
-841.279 -3.41923 0
-839.718 -3.34075 0
-838.155 -3.26304 0
-836.591 -3.18875 0
-835.027 -3.11509 0
-833.461 -3.04428 0
-831.897 -2.97925 0
-830.329 -2.91286 0
-828.76 -2.85138 0
-827.192 -2.79106 0
-825.622 -2.73277 0
-824.056 -2.67838 0
-822.487 -2.62757 0
-820.917 -2.57797 0
-819.347 -2.53198 0
-817.776 -2.49017 0
-816.205 -2.44807 0
-814.634 -2.40938 0
-813.064 -2.37633 0
-811.491 -2.34492 0
-809.921 -2.3142 0
-808.35 -2.28877 0
-806.777 -2.26743 0
-805.208 -2.24637 0
-803.638 -2.23173 0
-802.067 -2.21427 0
-800.495 -2.20212 0
-798.924 -2.19098 0
-797.356 -2.18547 0
-795.787 -2.18015 0
-794.218 -2.18046 0
-792.648 -2.17694 0
-791.079 -2.17842 0
-789.51 -2.18419 0
-787.94 -2.18956 0
-786.371 -2.19849 0
-784.803 -2.2079 0
-783.235 -2.21949 0
-781.67 -2.23339 0
-780.103 -2.24643 0
-778.536 -2.26404 0
-776.97 -2.28174 0
-775.405 -2.30141 0
-773.84 -2.32163 0
-772.275 -2.34299 0
-770.711 -2.36465 0
-769.147 -2.38817 0
-767.582 -2.41263 0
-766.02 -2.43899 0
-764.456 -2.46237 0
-762.896 -2.48679 0
-761.334 -2.51332 0
-759.774 -2.54219 0
-758.212 -2.56988 0
-756.652 -2.59912 0
-755.092 -2.62854 0
-753.532 -2.65402 0
-751.972 -2.68212 0
-750.414 -2.71007 0
-748.855 -2.73946 0
-747.298 -2.76869 0
-745.74 -2.79588 0
-744.181 -2.82507 0
-742.622 -2.85039 0
-741.066 -2.87763 0
-739.509 -2.90436 0
-737.954 -2.93158 0
-736.396 -2.95641 0
-734.841 -2.98145 0
-733.284 -3.00304 0
-731.729 -3.0272 0
-730.173 -3.04795 0
-728.618 -3.06873 0
-727.062 -3.08949 0
-725.507 -3.11046 0
-723.952 -3.13136 0
-722.397 -3.14938 0
-720.842 -3.16894 0
-719.289 -3.18535 0
-717.735 -3.20058 0
-716.183 -3.21566 0
-714.628 -3.23195 0
-713.075 -3.24558 0
-711.521 -3.25705 0
-709.97 -3.26847 0
-708.415 -3.27953 0
-706.861 -3.29071 0
-705.307 -3.29744 0
-703.753 -3.3053 0
-702.199 -3.31239 0
-700.645 -3.31864 0
-699.091 -3.32693 0
-697.536 -3.33021 0
-695.98 -3.33596 0
-694.428 -3.34003 0
-692.875 -3.34164 0
-691.322 -3.34315 0
-689.768 -3.34367 0
-688.214 -3.34617 0
-686.66 -3.34383 0
-685.107 -3.34316 0
-683.551 -3.34311 0
-681.996 -3.34067 0
-680.443 -3.33853 0
-678.888 -3.3352 0
-677.332 -3.33129 0
-675.777 -3.32736 0
-674.223 -3.32263 0
-672.667 -3.31931 0
-671.11 -3.31261 0
-669.554 -3.30488 0
-668 -3.30036 0
-666.445 -3.29098 0
-664.888 -3.28513 0
-663.333 -3.27543 0
-661.776 -3.26797 0
-660.221 -3.26218 0
-658.665 -3.25451 0
-657.108 -3.24588 0
-655.549 -3.23793 0
-653.995 -3.23024 0
-652.438 -3.22075 0
-650.881 -3.20981 0
-649.326 -3.20197 0
-647.77 -3.19567 0
-646.212 -3.18517 0
-644.654 -3.17585 0
-643.096 -3.16801 0
-641.538 -3.15948 0
-639.98 -3.15073 0
-638.422 -3.1415 0
-636.864 -3.13412 0
-635.305 -3.12247 0
-633.747 -3.11223 0
-632.187 -3.10659 0
-630.63 -3.09712 0
-629.071 -3.09135 0
-627.514 -3.0828 0
-625.956 -3.07021 0
-624.397 -3.06087 0
-622.839 -3.05518 0
-621.281 -3.04981 0
-619.721 -3.04327 0
-618.164 -3.03824 0
-616.605 -3.03172 0
-615.046 -3.02667 0
-613.49 -3.02146 0
-611.931 -3.01568 0
-610.373 -3.01023 0
-608.817 -3.00337 0
-607.256 -2.99671 0
-605.698 -2.98954 0
-604.137 -2.98553 0
-602.579 -2.97921 0
-601.019 -2.97253 0
-599.456 -2.97142 0
-597.899 -2.96738 0
-596.338 -2.96394 0
-594.78 -2.96223 0
-593.223 -2.9588 0
-591.664 -2.95842 0
-590.105 -2.95891 0
-588.544 -2.95567 0
-586.984 -2.95192 0
-585.427 -2.94681 0
-583.867 -2.94502 0
-582.308 -2.94511 0
-580.751 -2.94187 0
-579.193 -2.94279 0
-577.634 -2.94282 0
-576.075 -2.94251 0
-574.517 -2.9457 0
-572.958 -2.94276 0
-571.398 -2.94157 0
-569.842 -2.94522 0
-568.284 -2.94876 0
-566.725 -2.9497 0
-565.165 -2.94959 0
-563.606 -2.95002 0
-562.049 -2.94893 0
-560.491 -2.9537 0
-558.929 -2.95471 0
-557.372 -2.95814 0
-555.812 -2.96122 0
-554.254 -2.96211 0
-552.695 -2.96671 0
-551.14 -2.96679 0
-549.581 -2.97218 0
-548.02 -2.97302 0
-546.462 -2.97382 0
-544.907 -2.97794 0
-543.347 -2.97988 0
-541.791 -2.98459 0
-540.233 -2.98798 0
-538.674 -2.98977 0
-537.116 -2.9932 0
-535.56 -2.99636 0
-534 -2.99758 0
-532.441 -2.99989 0
-530.883 -3.00437 0
-529.328 -3.00736 0
-527.774 -3.01115 0
-526.215 -3.01516 0
-524.656 -3.01744 0
-523.098 -3.0194 0
-521.541 -3.01922 0
-519.983 -3.02741 0
-518.426 -3.02883 0
-516.87 -3.02888 0
-515.314 -3.03326 0
-513.757 -3.03463 0
-512.198 -3.04069 0
-510.639 -3.04289 0
-509.081 -3.04572 0
-507.521 -3.04827 0
-505.967 -3.04772 0
-504.41 -3.05509 0
-502.853 -3.05669 0
-501.298 -3.05854 0
-499.739 -3.05976 0
-498.185 -3.06342 0
-496.627 -3.06762 0
-495.068 -3.06448 0
-493.509 -3.06904 0
-491.951 -3.07315 0
-490.394 -3.07679 0
-488.839 -3.07661 0
-487.28 -3.07748 0
-485.724 -3.07935 0
-484.17 -3.08178 0
-482.612 -3.08337 0
-481.051 -3.08263 0
-479.493 -3.0792 0
-477.939 -3.08279 0
-476.382 -3.08151 0
-474.822 -3.08262 0
-473.267 -3.08426 0
-471.708 -3.08743 0
-470.15 -3.08567 0
-468.593 -3.08651 0
-467.039 -3.08775 0
-465.482 -3.08539 0
-463.924 -3.08801 0
-462.369 -3.08856 0
-460.811 -3.09465 0
-459.253 -3.09143 0
-457.697 -3.09165 0
-456.14 -3.09336 0
-454.585 -3.09323 0
-453.03 -3.09073 0
-451.471 -3.09201 0
-449.915 -3.08647 0
-448.357 -3.08743 0
-446.8 -3.08407 0
-445.243 -3.0842 0
-443.685 -3.08514 0
-442.127 -3.08511 0
-440.569 -3.08331 0
-439.012 -3.08422 0
-437.455 -3.08451 0
-435.895 -3.08176 0
-434.341 -3.08275 0
-432.785 -3.08055 0
-431.231 -3.08079 0
-429.671 -3.07815 0
-428.114 -3.07867 0
-426.555 -3.0792 0
-424.998 -3.07878 0
-423.441 -3.07865 0
-421.881 -3.07534 0
-420.323 -3.07624 0
-418.769 -3.07312 0
-417.21 -3.07482 0
-415.652 -3.07422 0
-414.095 -3.07324 0
-412.537 -3.07112 0
-410.98 -3.0704 0
-409.423 -3.07197 0
-407.865 -3.06826 0
-406.309 -3.06998 0
-404.752 -3.06807 0
-403.193 -3.06862 0
-401.636 -3.06889 0
-400.079 -3.06819 0
-398.522 -3.06899 0
-396.966 -3.0686 0
-395.408 -3.06498 0
-393.852 -3.06688 0
-392.295 -3.06373 0
-390.738 -3.0617 0
-389.181 -3.06168 0
-387.624 -3.0602 0
-386.067 -3.05844 0
-384.509 -3.05552 0
-382.951 -3.05858 0
-381.393 -3.0575 0
-379.837 -3.05671 0
-378.282 -3.0608 0
-376.726 -3.05536 0
-375.17 -3.05522 0
-373.61 -3.05532 0
-372.053 -3.05464 0
-370.499 -3.0536 0
-368.937 -3.04996 0
-367.381 -3.05337 0
-365.827 -3.05409 0
-364.272 -3.05847 0
-362.712 -3.05767 0
-361.153 -3.05679 0
-359.596 -3.05692 0
-358.04 -3.05708 0
-356.483 -3.05465 0
-354.928 -3.0544 0
-353.373 -3.05564 0
-351.816 -3.05278 0
-350.257 -3.05356 0
-348.703 -3.05318 0
-347.144 -3.05168 0
-345.584 -3.05926 0
-344.027 -3.05953 0
-342.468 -3.05272 0
-340.911 -3.05401 0
-339.351 -3.05625 0
-337.799 -3.05301 0
-336.24 -3.05298 0
-334.681 -3.053 0
-333.125 -3.05392 0
-331.571 -3.04921 0
-330.012 -3.0523 0
-328.453 -3.0488 0
-326.895 -3.04931 0
-325.338 -3.05279 0
-323.781 -3.05344 0
-322.225 -3.05527 0
-320.668 -3.05575 0
-319.111 -3.05464 0
-317.554 -3.05245 0
-315.996 -3.05608 0
-314.437 -3.05437 0
-312.88 -3.05185 0
-311.326 -3.05393 0
-309.769 -3.05805 0
-308.21 -3.05429 0
-306.657 -3.05977 0
-305.099 -3.058 0
-303.544 -3.06134 0
-301.985 -3.05749 0
-300.427 -3.06172 0
-298.871 -3.0587 0
-297.313 -3.05886 0
-295.758 -3.05853 0
-294.202 -3.06109 0
-292.645 -3.06253 0
-291.085 -3.06692 0
-289.528 -3.06162 0
-287.974 -3.06102 0
-286.418 -3.05988 0
-284.858 -3.05779 0
-283.305 -3.05817 0
-281.746 -3.06073 0
-280.189 -3.06355 0
-278.631 -3.06313 0
-277.074 -3.06216 0
-275.517 -3.06405 0
-273.962 -3.0601 0
-272.407 -3.06268 0
-270.85 -3.06052 0
-269.291 -3.06055 0
-267.736 -3.05962 0
-266.179 -3.06061 0
-264.62 -3.0631 0
-263.065 -3.06205 0
-261.505 -3.06383 0
-259.946 -3.06535 0
-258.389 -3.0636 0
-256.835 -3.06404 0
-255.278 -3.06647 0
-253.721 -3.06558 0
-252.165 -3.06352 0
-250.605 -3.06122 0
-249.051 -3.06158 0
-247.496 -3.06047 0
-245.94 -3.06045 0
-244.382 -3.06189 0
-242.824 -3.06117 0
-241.268 -3.06165 0
-239.709 -3.0623 0
-238.155 -3.06471 0
-236.596 -3.06237 0
-235.041 -3.05987 0
-233.483 -3.05692 0
-231.927 -3.05858 0
-230.369 -3.06009 0
-228.812 -3.06062 0
-227.256 -3.06085 0
-225.699 -3.05952 0
-224.143 -3.05559 0
-222.586 -3.05948 0
-221.032 -3.0584 0
-219.473 -3.05881 0
-217.916 -3.0584 0
-216.36 -3.05744 0
-214.804 -3.05674 0
-213.249 -3.05503 0
-211.691 -3.05847 0
-210.132 -3.0612 0
-208.576 -3.06222 0
-207.021 -3.06304 0
-205.465 -3.06443 0
-203.906 -3.0625 0
-202.35 -3.06486 0
-200.796 -3.06025 0
-199.238 -3.06461 0
-197.678 -3.06364 0
-196.122 -3.06654 0
-194.565 -3.06422 0
-193.006 -3.06423 0
-191.45 -3.06006 0
-189.895 -3.06383 0
-188.339 -3.06266 0
-186.782 -3.06206 0
-185.227 -3.06008 0
-183.672 -3.06273 0
-182.115 -3.0639 0
-180.559 -3.06362 0
-179.001 -3.06235 0
-177.443 -3.06457 0
-175.883 -3.06214 0
-174.327 -3.06434 0
-172.77 -3.06259 0
-171.214 -3.06493 0
-169.658 -3.06459 0
-168.103 -3.06589 0
-166.546 -3.06535 0
-164.989 -3.06732 0
-163.429 -3.06394 0
-161.874 -3.0636 0
-160.317 -3.06399 0
-158.762 -3.06411 0
-157.205 -3.06157 0
-155.647 -3.06134 0
-154.091 -3.06126 0
-152.535 -3.06246 0
-150.977 -3.06076 0
-149.419 -3.06181 0
-147.865 -3.06346 0
-146.309 -3.06086 0
-144.753 -3.05864 0
-143.195 -3.05989 0
-141.635 -3.05891 0
-140.08 -3.05928 0
-138.524 -3.06071 0
-136.968 -3.05872 0
-135.411 -3.05738 0
-133.855 -3.05816 0
-132.298 -3.05874 0
-130.743 -3.05909 0
-129.183 -3.05814 0
-127.628 -3.05928 0
-126.073 -3.05648 0
-124.518 -3.0537 0
-122.962 -3.05676 0
-121.405 -3.05286 0
-119.846 -3.0565 0
-118.286 -3.05894 0
-116.729 -3.05672 0
-115.175 -3.05356 0
-113.618 -3.05647 0
-112.063 -3.0589 0
-110.505 -3.05775 0
-108.95 -3.05759 0
-107.393 -3.05976 0
-105.835 -3.05889 0
-104.279 -3.05717 0
-102.725 -3.0569 0
-101.167 -3.05596 0
-99.6102 -3.05238 0
-98.0527 -3.05255 0
-96.4968 -3.05577 0
-94.9405 -3.05727 0
-93.3848 -3.05621 0
-91.8274 -3.05629 0
-90.2713 -3.05722 0
-88.7135 -3.05715 0
-87.1543 -3.05811 0
-85.5994 -3.05809 0
-84.0436 -3.05897 0
-82.4877 -3.05597 0
-80.9313 -3.05764 0
-79.3738 -3.05819 0
-77.8177 -3.05824 0
-76.2596 -3.0601 0
-74.7069 -3.06036 0
-73.1505 -3.06286 0
-71.5928 -3.0648 0
-70.0337 -3.06157 0
-68.4792 -3.06033 0
-66.9225 -3.06135 0
-65.3685 -3.06071 0
-63.8112 -3.06161 0
-62.2575 -3.06414 0
-60.6983 -3.06299 0
-59.143 -3.05863 0
-57.5843 -3.06104 0
-56.0293 -3.06147 0
-54.4749 -3.05806 0
-52.9177 -3.06058 0
-51.3653 -3.06266 0
-49.8053 -3.06248 0
-48.2476 -3.06079 0
-46.6901 -3.06235 0
-45.134 -3.06175 0
-43.5786 -3.06154 0
-42.0254 -3.06194 0
-40.4694 -3.06357 0
-38.9113 -3.06371 0
-37.3547 -3.06388 0
-35.7977 -3.0629 0
-34.2386 -3.06041 0
-32.6837 -3.05923 0
-31.129 -3.06295 0
-29.5721 -3.06221 0
-28.0151 -3.06432 0
-26.458 -3.0635 0
-24.9036 -3.06322 0
-23.3462 -3.06111 0
-21.7876 -3.05647 0
-20.2333 -3.05503 0
-18.6775 -3.05847 0
-17.121 -3.06358 0
-15.5649 -3.05943 0
-14.0081 -3.05988 0
-12.4482 -3.06181 0
-10.8912 -3.06265 0
-9.33605 -3.06394 0
-7.78214 -3.065 0
-6.22559 -3.0611 0
-4.66936 -3.06191 0
-3.11312 -3.06386 0
-1.55522 -3.06452 0
0 -3.06066 0
-1051.62 78.5887 0
-1051.65 69.6313 0
-1051.83 61.0625 0
-1051.97 52.7374 0
-1052.01 44.6863 0
-1051.95 36.9669 0
-1051.8 29.6592 0
-1051.57 22.8265 0
-1051.26 16.5106 0
-1050.89 10.7419 0
-1050.45 5.53155 0
-1049.97 0.874952 0
-1049.5 -3.28346 0
-1049.1 -7.05937 0
-1048.74 -10.5038 0
-1048.38 -13.6244 0
-1047.96 -16.4284 0
-1047.48 -18.8718 0
-1046.97 -20.9418 0
-1046.44 -22.644 0
-1045.89 -23.9914 0
-1045.32 -25.0036 0
-1044.74 -25.7073 0
-1044.14 -26.1322 0
-1043.52 -26.3107 0
-1042.88 -26.2719 0
-1042.19 -26.0426 0
-1041.48 -25.6487 0
-1040.72 -25.1115 0
-1039.92 -24.4517 0
-1039.08 -23.6846 0
-1038.2 -22.8271 0
-1037.27 -21.895 0
-1036.3 -20.9004 0
-1035.29 -19.8562 0
-1034.24 -18.7737 0
-1033.15 -17.6607 0
-1032.02 -16.53 0
-1030.86 -15.3888 0
-1029.65 -14.2423 0
-1028.42 -13.0997 0
-1027.15 -11.966 0
-1025.85 -10.8466 0
-1024.51 -9.74852 0
-1023.16 -8.67235 0
-1021.77 -7.62383 0
-1020.36 -6.60597 0
-1018.92 -5.62153 0
-1017.46 -4.67342 0
-1015.98 -3.76309 0
-1014.48 -2.8917 0
-1012.97 -2.06278 0
-1011.43 -1.27638 0
-1009.88 -0.530937 0
-1008.32 0.17 0
-1006.74 0.827824 0
-1005.15 1.44027 0
-1003.55 2.00908 0
-1001.94 2.53551 0
-1000.32 3.01787 0
-998.688 3.45697 0
-997.053 3.85446 0
-995.411 4.21012 0
-993.764 4.52577 0
-992.113 4.8008 0
-990.457 5.03637 0
-988.798 5.23543 0
-987.137 5.3996 0
-985.475 5.52743 0
-983.811 5.62167 0
-982.146 5.68428 0
-980.482 5.71556 0
-978.819 5.71864 0
-977.156 5.6921 0
-975.495 5.64003 0
-973.836 5.56227 0
-972.179 5.46183 0
-970.525 5.33863 0
-968.873 5.19546 0
-967.225 5.03257 0
-965.579 4.85313 0
-963.939 4.65597 0
-962.302 4.44601 0
-960.669 4.2223 0
-959.04 3.98885 0
-957.415 3.74459 0
-955.795 3.48971 0
-954.179 3.2271 0
-952.569 2.95867 0
-950.962 2.68551 0
-949.359 2.4086 0
-947.761 2.12847 0
-946.167 1.84571 0
-944.578 1.56306 0
-942.992 1.2806 0
-941.411 0.998667 0
-939.835 0.719077 0
-938.262 0.443659 0
-936.693 0.172843 0
-935.128 -0.0948549 0
-933.567 -0.355322 0
-932.008 -0.611176 0