<?xml version="1.0"?>
<VTKFile type="StructuredGrid"  version="0.1" byte_order="LittleEndian" compressor="vtkZLibDataCompressor">
  <StructuredGrid WholeExtent="0 700 0 30 0 0">
    <Piece Extent="0 700 0 30 0 0">
      <PointData Vectors="Velocity">
        <DataArray type="Float32" Name="Velocity" NumberOfComponents="3" format="ascii">
-1058.99 91.2364 0
-1059.45 81.7411 0
-1059.95 72.3783 0
-1060.47 63.231 0
-1061.02 54.3425 0
-1061.61 45.7943 0
-1062.24 37.6617 0
-1062.89 30.0002 0
-1063.55 22.8378 0
-1064.18 16.2009 0
-1064.79 10.1059 0
-1065.35 4.57301 0
-1065.85 -0.387384 0
-1066.2 -4.83262 0
-1066.45 -8.92171 0
-1066.63 -12.7703 0
-1066.88 -16.3246 0
-1067.13 -19.5016 0
-1067.37 -22.2857 0
-1067.58 -24.6857 0
-1067.74 -26.7193 0
-1067.87 -28.393 0
-1067.94 -29.7383 0
-1067.95 -30.7751 0
-1067.88 -31.5312 0
-1067.74 -32.0385 0
-1067.53 -32.3178 0
-1067.23 -32.3902 0
-1066.87 -32.2784 0
-1066.42 -31.9979 0
-1065.89 -31.5734 0
-1065.3 -31.0165 0
-1064.63 -30.3485 0
-1063.89 -29.5774 0
-1063.08 -28.7182 0
-1062.21 -27.7825 0
-1061.27 -26.7823 0
-1060.28 -25.7312 0
-1059.23 -24.6352 0
-1058.12 -23.5043 0
-1056.96 -22.3451 0
-1055.74 -21.1697 0
-1054.49 -19.9832 0
-1053.18 -18.7902 0
-1051.84 -17.6017 0
-1050.45 -16.4196 0
-1049.02 -15.2477 0
-1047.56 -14.0914 0
-1046.07 -12.9546 0
-1044.55 -11.8393 0
-1043 -10.7532 0
-1041.42 -9.69333 0
-1039.81 -8.66821 0
-1038.18 -7.67818 0
-1036.54 -6.72259 0
-1034.87 -5.80388 0
-1033.18 -4.92694 0
-1031.48 -4.08857 0
-1029.76 -3.29251 0
-1028.03 -2.53623 0
-1026.29 -1.8209 0
-1024.54 -1.14944 0
-1022.78 -0.521251 0
-1021.01 0.064904 0
-1019.23 0.609314 0
-1017.45 1.11206 0
-1015.66 1.57139 0
-1013.87 1.98896 0
-1012.07 2.36756 0
-1010.28 2.7053 0
-1008.48 3.0018 0
-1006.68 3.26117 0
-1004.88 3.48317 0
-1003.09 3.67019 0
-1001.29 3.82103 0
-999.496 3.93828 0
-997.706 4.02066 0
-995.918 4.0729 0
-994.138 4.09463 0
-992.358 4.08398 0
-990.584 4.04965 0
-988.817 3.98249 0
-987.054 3.89441 0
-985.298 3.77873 0
-983.548 3.64499 0
-981.802 3.48796 0
-980.065 3.30977 0
-978.336 3.11315 0
-976.614 2.9006 0
-974.897 2.6703 0
-973.188 2.42482 0
-971.486 2.16748 0
-969.794 1.89771 0
-968.106 1.61708 0
-966.427 1.32928 0
-964.752 1.0306 0
-963.086 0.728807 0
-961.428 0.413924 0
-959.778 0.102393 0
-958.134 -0.216927 0
-956.496 -0.537467 0
-954.864 -0.861207 0
-953.237 -1.1856 0
-951.618 -1.50844 0
-950.007 -1.8297 0
-948.4 -2.14973 0
-946.799 -2.46665 0
-945.204 -2.7773 0
-943.613 -3.08839 0
-942.026 -3.38883 0
-940.446 -3.68673 0
-938.868 -3.97594 0
-937.295 -4.25857 0
-935.727 -4.53318 0
-934.162 -4.80083 0
-932.603 -5.0584 0
-931.046 -5.30909 0
-929.49 -5.54783 0
-927.938 -5.77486 0
-926.386 -5.99474 0
-924.837 -6.20337 0
-923.291 -6.40331 0
-921.749 -6.59048 0
-920.206 -6.76798 0
-918.664 -6.93557 0
-917.123 -7.09048 0
-915.582 -7.23416 0
-914.042 -7.36747 0
-912.505 -7.49187 0
-910.966 -7.60313 0
-909.428 -7.70269 0
-907.891 -7.79619 0
-906.351 -7.87646 0
-904.812 -7.94903 0
-903.272 -8.00767 0
-901.732 -8.05648 0
-900.192 -8.09943 0
-898.649 -8.12917 0
-897.104 -8.1499 0
-895.56 -8.16485 0
-894.016 -8.16845 0
-892.469 -8.16574 0
-890.918 -8.15453 0
-889.369 -8.13481 0
-887.817 -8.1097 0
-886.263 -8.07562 0
-884.707 -8.03535 0
-883.149 -7.98867 0
-881.592 -7.93588 0
-880.03 -7.88113 0
-878.468 -7.81726 0
-876.906 -7.74885 0
-875.341 -7.67458 0
-873.773 -7.59782 0
-872.203 -7.51868 0
-870.631 -7.43153 0
-869.058 -7.3449 0
-867.483 -7.25483 0
-865.905 -7.15902 0
-864.326 -7.06141 0
-862.745 -6.96497 0
-861.164 -6.86774 0
-859.579 -6.76539 0
-857.992 -6.66395 0
-856.402 -6.56334 0
-854.813 -6.45869 0
-853.222 -6.35311 0
-851.628 -6.25021 0
-850.033 -6.14723 0
-848.436 -6.04371 0
-846.842 -5.94173 0
-845.241 -5.84141 0
-843.642 -5.74066 0
-842.042 -5.64078 0
-840.44 -5.54233 0
-838.836 -5.44838 0
-837.232 -5.35215 0
-835.627 -5.25925 0
-834.021 -5.16889 0
-832.413 -5.08042 0
-830.804 -4.99529 0
-829.193 -4.91297 0
-827.583 -4.83247 0
-825.972 -4.75473 0
-824.361 -4.67558 0
-822.749 -4.60217 0
-821.137 -4.5333 0
-819.523 -4.46598 0
-817.91 -4.40332 0
-816.295 -4.34348 0
-814.68 -4.28426 0
-813.063 -4.22964 0
-811.45 -4.18126 0
-809.836 -4.13168 0
-808.221 -4.08736 0
-806.603 -4.04305 0
-804.987 -4.00559 0
-803.371 -3.97051 0
-801.756 -3.93782 0
-800.143 -3.90811 0
-798.526 -3.88019 0
-796.909 -3.85839 0
-795.295 -3.83727 0
-793.682 -3.81766 0
-792.067 -3.80178 0
-790.453 -3.79044 0
-788.839 -3.77912 0
-787.225 -3.77262 0
-785.61 -3.76782 0
-783.997 -3.7663 0
-782.384 -3.76166 0
-780.773 -3.76748 0
-779.161 -3.77392 0
-777.549 -3.77942 0
-775.938 -3.78675 0
-774.327 -3.79861 0
-772.715 -3.81014 0
-771.11 -3.8242 0
-769.501 -3.8422 0
-767.893 -3.86325 0
-766.283 -3.88275 0
-764.676 -3.90303 0
-763.072 -3.92553 0
-761.463 -3.94763 0
-759.855 -3.97442 0
-758.248 -4.00279 0
-756.645 -4.02808 0
-755.041 -4.05735 0
-753.44 -4.08604 0
-751.835 -4.11449 0
-750.231 -4.1425 0
-748.628 -4.17605 0
-747.027 -4.20362 0
-745.425 -4.23725 0
-743.825 -4.26881 0
-742.224 -4.29961 0
-740.627 -4.33102 0
-739.028 -4.36482 0
-737.429 -4.39555 0
-735.829 -4.42914 0
-734.233 -4.46036 0
-732.635 -4.49332 0
-731.036 -4.52646 0
-729.439 -4.55748 0
-727.843 -4.58777 0
-726.247 -4.61977 0
-724.65 -4.64928 0
-723.054 -4.68007 0
-721.462 -4.70897 0
-719.866 -4.73693 0
-718.27 -4.76352 0
-716.674 -4.79047 0
-715.083 -4.81988 0
-713.49 -4.84239 0
-711.897 -4.8677 0
-710.304 -4.89428 0
-708.711 -4.92091 0
-707.117 -4.94263 0
-705.524 -4.96002 0
-703.932 -4.9831 0
-702.338 -5.00499 0
-700.748 -5.02115 0
-699.155 -5.0423 0
-697.562 -5.05378 0
-695.969 -5.07351 0
-694.379 -5.0888 0
-692.786 -5.1037 0
-691.192 -5.11853 0
-689.601 -5.13406 0
-688.008 -5.14584 0
-686.415 -5.15373 0
-684.826 -5.16339 0
-683.235 -5.16922 0
-681.64 -5.1791 0
-680.05 -5.18431 0
-678.457 -5.19694 0
-676.864 -5.19905 0
-675.275 -5.20733 0
-673.682 -5.20922 0
-672.093 -5.21457 0
-670.499 -5.21448 0
-668.905 -5.21794 0
-667.312 -5.22147 0
-665.72 -5.22093 0
-664.127 -5.21838 0
-662.533 -5.21301 0
-660.94 -5.21271 0
-659.347 -5.2136 0
-657.752 -5.20778 0
-656.161 -5.20533 0
-654.567 -5.19929 0
-652.977 -5.19456 0
-651.384 -5.19175 0
-649.791 -5.18743 0
-648.196 -5.17696 0
-646.599 -5.16954 0
-645.003 -5.16209 0
-643.409 -5.15027 0
-641.813 -5.13936 0
-640.22 -5.13142 0
-638.626 -5.12592 0
-637.032 -5.11917 0
-635.436 -5.1061 0
-633.839 -5.09919 0
-632.245 -5.0872 0
-630.65 -5.07818 0
-629.055 -5.06712 0
-627.46 -5.0593 0
-625.867 -5.04771 0
-624.271 -5.03549 0
-622.674 -5.02123 0
-621.08 -5.01002 0
-619.482 -4.99591 0
-617.884 -4.98876 0
-616.287 -4.97757 0
-614.69 -4.96678 0
-613.092 -4.95552 0
-611.495 -4.94391 0
-609.897 -4.92981 0
-608.304 -4.91905 0
-606.704 -4.90816 0
-605.105 -4.89645 0
-603.508 -4.88654 0
-601.915 -4.87422 0
-600.312 -4.86249 0
-598.713 -4.84812 0
-597.113 -4.84254 0
-595.516 -4.83655 0
-593.916 -4.82622 0
-592.319 -4.81784 0
-590.718 -4.80423 0
-589.122 -4.79562 0
-587.524 -4.7887 0
-585.924 -4.7796 0
-584.329 -4.76778 0
-582.73 -4.76336 0
-581.135 -4.75273 0
-579.533 -4.74552 0
-577.935 -4.73495 0
-576.334 -4.73388 0
-574.734 -4.72849 0
-573.136 -4.72235 0
-571.537 -4.71727 0
-569.936 -4.71045 0
-568.338 -4.70473 0
-566.742 -4.69862 0
-565.144 -4.6939 0
-563.547 -4.68589 0
-561.949 -4.68416 0
-560.347 -4.68128 0
-558.746 -4.67749 0
-557.147 -4.67542 0
-555.551 -4.67544 0
-553.951 -4.66959 0
-552.349 -4.66528 0
-550.751 -4.66571 0
-549.154 -4.66075 0
-547.555 -4.66164 0
-545.954 -4.65685 0
-544.355 -4.65698 0
-542.757 -4.65977 0
-541.157 -4.65588 0
-539.558 -4.65238 0
-537.959 -4.65668 0
-536.362 -4.65743 0
-534.762 -4.6548 0
-533.166 -4.65729 0
-531.568 -4.65971 0
-529.971 -4.65386 0
-528.374 -4.65059 0
-526.775 -4.65154 0
-525.172 -4.65894 0
-523.578 -4.66255 0
-521.98 -4.66277 0
-520.377 -4.6648 0
-518.776 -4.6657 0
-517.179 -4.66661 0
-515.582 -4.66902 0
-513.988 -4.67081 0
-512.391 -4.67457 0
-510.794 -4.67293 0
-509.198 -4.68085 0
-507.599 -4.68094 0
-506.001 -4.68963 0
-504.401 -4.69075 0
-502.802 -4.69365 0
-501.203 -4.69867 0
-499.606 -4.69967 0
-498.009 -4.70271 0
-496.414 -4.70377 0
-494.816 -4.70335 0
-493.223 -4.71009 0
-491.626 -4.71475 0
-490.028 -4.71635 0
-488.432 -4.71933 0
-486.835 -4.72602 0
-485.242 -4.72857 0
-483.646 -4.72653 0
-482.049 -4.73354 0
-480.45 -4.73656 0
-478.855 -4.73706 0
-477.258 -4.74287 0
-475.659 -4.74525 0
-474.064 -4.7425 0
-472.466 -4.74615 0
-470.87 -4.75323 0
-469.274 -4.75923 0
-467.677 -4.75906 0
-466.083 -4.76456 0
-464.485 -4.76423 0
-462.883 -4.77 0
-461.288 -4.77059 0
-459.696 -4.77276 0
-458.096 -4.77352 0
-456.5 -4.77461 0
-454.907 -4.77634 0
-453.31 -4.77964 0
-451.716 -4.77945 0
-450.12 -4.78663 0
-448.52 -4.78538 0
-446.922 -4.79011 0
-445.332 -4.79249 0
-443.732 -4.79128 0
-442.137 -4.79765 0
-440.537 -4.79436 0
-438.941 -4.79066 0
-437.343 -4.79464 0
-435.747 -4.79078 0
-434.152 -4.79581 0
-432.555 -4.79602 0
-430.96 -4.79795 0
-429.363 -4.79651 0
-427.766 -4.79609 0
-426.166 -4.79485 0
-424.574 -4.79377 0
-422.981 -4.7945 0
-421.387 -4.79399 0
-419.788 -4.80001 0
-418.192 -4.79709 0
-416.591 -4.80113 0
-414.996 -4.80233 0
-413.401 -4.8005 0
-411.806 -4.79674 0
-410.211 -4.79804 0
-408.615 -4.79648 0
-407.017 -4.80132 0
-405.42 -4.79899 0
-403.82 -4.79714 0
-402.226 -4.79574 0
-400.627 -4.79419 0
-399.033 -4.79722 0
-397.434 -4.79239 0
-395.842 -4.78812 0
-394.246 -4.79067 0
-392.649 -4.78435 0
-391.054 -4.78238 0
-389.461 -4.78451 0
-387.855 -4.78471 0
-386.263 -4.78658 0
-384.666 -4.78428 0
-383.068 -4.78384 0
-381.474 -4.78251 0
-379.875 -4.78016 0
-378.277 -4.77869 0
-376.681 -4.7768 0
-375.083 -4.77663 0
-373.487 -4.78367 0
-371.892 -4.77361 0
-370.294 -4.77405 0
-368.699 -4.7738 0
-367.102 -4.76957 0
-365.504 -4.76897 0
-363.905 -4.7644 0
-362.311 -4.76537 0
-360.711 -4.75735 0
-359.118 -4.7583 0
-357.523 -4.75993 0
-355.928 -4.75716 0
-354.333 -4.75873 0
-352.734 -4.75969 0
-351.135 -4.76076 0
-349.538 -4.76109 0
-347.938 -4.75723 0
-346.344 -4.75624 0
-344.749 -4.75127 0
-343.153 -4.75059 0
-341.556 -4.74784 0
-339.959 -4.75053 0
-338.359 -4.74847 0
-336.766 -4.74756 0
-335.171 -4.74667 0
-333.577 -4.74414 0
-331.979 -4.74301 0
-330.384 -4.74175 0
-328.785 -4.74109 0
-327.19 -4.73859 0
-325.591 -4.73716 0
-323.997 -4.73803 0
-322.399 -4.73581 0
-320.808 -4.73819 0
-319.211 -4.73952 0
-317.613 -4.73846 0
-316.015 -4.73532 0
-314.414 -4.73235 0
-312.814 -4.73666 0
-311.221 -4.73089 0
-309.623 -4.72767 0
-308.031 -4.72531 0
-306.433 -4.7286 0
-304.836 -4.73322 0
-303.241 -4.73051 0
-301.642 -4.72308 0
-300.048 -4.72686 0
-298.449 -4.72393 0
-296.851 -4.72724 0
-295.257 -4.72582 0
-293.658 -4.72345 0
-292.066 -4.72392 0
-290.471 -4.72204 0
-288.873 -4.71969 0
-287.274 -4.71945 0
-285.678 -4.72229 0
-284.08 -4.71863 0
-282.48 -4.72045 0
-280.883 -4.7146 0
-279.289 -4.71336 0
-277.69 -4.71057 0
-276.097 -4.71327 0
-274.501 -4.71702 0
-272.905 -4.72518 0
-271.308 -4.72275 0
-269.716 -4.71947 0
-268.119 -4.71687 0
-266.522 -4.71809 0
-264.928 -4.72003 0
-263.326 -4.719 0
-261.729 -4.71956 0
-260.136 -4.71919 0
-258.543 -4.72051 0
-256.944 -4.72199 0
-255.343 -4.72021 0
-253.749 -4.72042 0
-252.153 -4.72071 0
-250.558 -4.7163 0
-248.962 -4.71597 0
-247.366 -4.71974 0
-245.769 -4.71683 0
-244.169 -4.72222 0
-242.574 -4.71526 0
-240.973 -4.7165 0
-239.381 -4.72057 0
-237.787 -4.7158 0
-236.193 -4.71847 0
-234.595 -4.72003 0
-232.999 -4.71553 0
-231.402 -4.71872 0
-229.803 -4.72192 0
-228.206 -4.72168 0
-226.611 -4.71637 0
-225.015 -4.70829 0
-223.421 -4.71236 0
-221.83 -4.71595 0
-220.231 -4.71629 0
-218.629 -4.72241 0
-217.026 -4.71968 0
-215.435 -4.72891 0
-213.839 -4.72141 0
-212.248 -4.71817 0
-210.652 -4.72315 0
-209.056 -4.72042 0
-207.459 -4.72494 0
-205.866 -4.72799 0
-204.27 -4.72596 0
-202.675 -4.72284 0
-201.076 -4.72575 0
-199.477 -4.72506 0
-197.881 -4.73079 0
-196.288 -4.72378 0
-194.691 -4.73065 0
-193.094 -4.72637 0
-191.496 -4.72912 0
-189.9 -4.73386 0
-188.303 -4.72823 0
-186.704 -4.72609 0
-185.11 -4.72313 0
-183.516 -4.72683 0
-181.922 -4.72988 0
-180.323 -4.72994 0
-178.725 -4.72952 0
-177.131 -4.73082 0
-175.535 -4.72929 0
-173.939 -4.73128 0
-172.346 -4.73 0
-170.752 -4.73361 0
-169.154 -4.73421 0
-167.559 -4.7297 0
-165.964 -4.7339 0
-164.368 -4.73282 0
-162.771 -4.73234 0
-161.173 -4.7338 0
-159.581 -4.73008 0
-157.983 -4.7323 0
-156.387 -4.73633 0
-154.793 -4.73488 0
-153.198 -4.73078 0
-151.604 -4.72708 0
-150.009 -4.72899 0
-148.409 -4.73205 0
-146.813 -4.73168 0
-145.22 -4.7332 0
-143.624 -4.7336 0
-142.027 -4.73585 0
-140.43 -4.73081 0
-138.831 -4.73555 0
-137.234 -4.7348 0
-135.64 -4.73268 0
-134.047 -4.73449 0
-132.451 -4.72988 0
-130.854 -4.7344 0
-129.261 -4.73434 0
-127.665 -4.73421 0
-126.067 -4.73427 0
-124.47 -4.73294 0
-122.876 -4.73576 0
-121.28 -4.73395 0
-119.689 -4.73399 0
-118.091 -4.73638 0
-116.498 -4.73685 0
-114.899 -4.73613 0
-113.303 -4.73428 0
-111.709 -4.73422 0
-110.113 -4.73193 0
-108.516 -4.73017 0
-106.917 -4.73343 0
-105.323 -4.73247 0
-103.724 -4.73418 0
-102.132 -4.73388 0
-100.537 -4.73492 0
-98.9404 -4.73477 0
-97.3427 -4.73405 0
-95.7451 -4.73358 0
-94.1519 -4.7337 0
-92.5565 -4.73283 0
-90.9587 -4.734 0
-89.3631 -4.73272 0
-87.7673 -4.73104 0
-86.1735 -4.7323 0
-84.5758 -4.73256 0
-82.9794 -4.73156 0
-81.3825 -4.73421 0
-79.7891 -4.73447 0
-78.1956 -4.73692 0
-76.5959 -4.73343 0
-75.0013 -4.73365 0
-73.4071 -4.73349 0
-71.8113 -4.72969 0
-70.2132 -4.73075 0
-68.6153 -4.7308 0
-67.0205 -4.72806 0
-65.423 -4.72443 0
-63.8306 -4.72686 0
-62.2349 -4.72662 0
-60.6361 -4.72877 0
-59.041 -4.73169 0
-57.4408 -4.72889 0
-55.8518 -4.72822 0
-54.2545 -4.73254 0
-52.6563 -4.72954 0
-51.0571 -4.73258 0
-49.4626 -4.73006 0
-47.8711 -4.72352 0
-46.2726 -4.72689 0
-44.6751 -4.72608 0
-43.0809 -4.72613 0
-41.4864 -4.7268 0
-39.8908 -4.72791 0
-38.2956 -4.73061 0
-36.7031 -4.72987 0
-35.1071 -4.72993 0
-33.5094 -4.72972 0
-31.9146 -4.73023 0
-30.3168 -4.73093 0
-28.7214 -4.72954 0
-27.1228 -4.72678 0
-25.5291 -4.72529 0
-23.9369 -4.72818 0
-22.3432 -4.72979 0
-20.743 -4.72698 0
-19.1448 -4.7312 0
-17.5471 -4.7339 0
-15.9504 -4.73333 0
-14.3585 -4.73194 0
-12.7658 -4.73404 0
-11.1695 -4.72479 0
-9.57526 -4.73608 0
-7.98072 -4.73004 0
-6.38109 -4.72862 0
-4.78815 -4.73109 0
-3.19555 -4.73294 0
-1.59802 -4.73018 0
0 -4.73672 0
-1068.49 91.7166 0
-1068.83 82.1685 0
-1069.17 72.7731 0
-1069.48 63.5964 0
-1069.76 54.6753 0
-1070 46.0752 0
-1070.19 37.8857 0
-1070.35 30.1682 0
-1070.48 22.9642 0
-1070.56 16.3023 0
-1070.59 10.191 0
-1070.56 4.6584 0
-1070.48 -0.290898 0
-1070.42 -4.73047 0
-1070.4 -8.82651 0
-1070.4 -12.6829 0
-1070.31 -16.2446 0
-1070.18 -19.4271 0
-1070.03 -22.2096 0
-1069.86 -24.6067 0
-1069.66 -26.6244 0
-1069.44 -28.2768 0
-1069.18 -29.5869 0
-1068.89 -30.5813 0
-1068.55 -31.2887 0
-1068.17 -31.7366 0
-1067.73 -31.9554 0
-1067.24 -31.965 0
-1066.69 -31.788 0
-1066.08 -31.4441 0
-1065.42 -30.9532 0
-1064.7 -30.3325 0
-1063.92 -29.6001 0
-1063.09 -28.768 0
-1062.2 -27.8478 0
-1061.26 -26.8542 0
-1060.26 -25.7989 0
-1059.22 -24.6921 0
-1058.13 -23.5441 0
-1056.99 -22.362 0
-1055.81 -21.1566 0
-1054.58 -19.9349 0
-1053.32 -18.7054 0
-1052.01 -17.4719 0
-1050.67 -16.2431 0
-1049.29 -15.0249 0
-1047.88 -13.8189 0
-1046.44 -12.6302 0
-1044.97 -11.4637 0
-1043.47 -10.3212 0
-1041.95 -9.20786 0
-1040.4 -8.12568 0
-1038.83 -7.07727 0
-1037.23 -6.06565 0
-1035.62 -5.0921 0
-1033.99 -4.15592 0
-1032.34 -3.26374 0
-1030.68 -2.40984 0
-1029.01 -1.60012 0
-1027.32 -0.832574 0
-1025.62 -0.108297 0
-1023.91 0.572839 0
-1022.19 1.20968 0
-1020.46 1.80226 0
-1018.72 2.35311 0
-1016.98 2.85922 0
-1015.24 3.32332 0
-1013.49 3.74359 0
-1011.73 4.12529 0
-1009.97 4.46408 0
-1008.21 4.76247 0
-1006.45 5.02197 0
-1004.69 5.2428 0
-1002.93 5.42795 0
-1001.16 5.57798 0
-999.405 5.69205 0
-997.646 5.77273 0
-995.888 5.82087 0
-994.138 5.83798 0
-992.387 5.82531 0
-990.64 5.78384 0
-988.898 5.7145 0
-987.159 5.61998 0
-985.425 5.50017 0
-983.696 5.35872 0
-981.973 5.19626 0
-980.255 5.01242 0
-978.541 4.80991 0
-976.835 4.59085 0
-975.134 4.35485 0
-973.438 4.10241 0
-971.75 3.83788 0
-970.066 3.56282 0
-968.389 3.27607 0
-966.716 2.9806 0
-965.051 2.67741 0
-963.393 2.36621 0
-961.739 2.04842 0
-960.091 1.72766 0
-958.449 1.40399 0
-956.814 1.07491 0
-955.184 0.747423 0
-953.557 0.41642 0
-951.937 0.0870982 0
-950.322 -0.239752 0
-948.713 -0.56384 0
-947.109 -0.885452 0
-945.509 -1.20261 0
-943.913 -1.51584 0
-942.323 -1.82217 0
-940.735 -2.12309 0
-939.151 -2.41612 0
-937.571 -2.70341 0
-935.994 -2.98084 0
-934.422 -3.25139 0
-932.852 -3.51336 0
-931.285 -3.76613 0
-929.72 -4.00656 0
-928.157 -4.2372 0
-926.595 -4.45807 0
-925.039 -4.66952 0
-923.482 -4.86943 0
-921.928 -5.06022 0
-920.376 -5.23969 0
-918.823 -5.40586 0
-917.271 -5.56302 0
-915.72 -5.70671 0
-914.17 -5.8412 0
-912.619 -5.96499 0
-911.07 -6.07678 0
-909.523 -6.17931 0
-907.974 -6.27018 0
-906.426 -6.35009 0
-904.876 -6.42195 0
-903.325 -6.48043 0
-901.776 -6.52986 0
-900.226 -6.5709 0
-898.675 -6.59903 0
-897.124 -6.61951 0
-895.569 -6.63217 0
-894.015 -6.63625 0
-892.46 -6.63177 0
-890.904 -6.61834 0
-889.344 -6.5998 0
-887.786 -6.57141 0
-886.225 -6.53655 0
-884.665 -6.49341 0
-883.102 -6.44639 0
-881.537 -6.39229 0
-879.972 -6.3347 0
-878.404 -6.26971 0
-876.836 -6.20007 0
-875.266 -6.12424 0
-873.695 -6.04509 0
-872.122 -5.96337 0
-870.547 -5.87526 0
-868.971 -5.78535 0
-867.391 -5.69417 0
-865.811 -5.59738 0
-864.231 -5.49864 0
-862.648 -5.40087 0
-861.063 -5.29972 0
-859.478 -5.1962 0
-857.89 -5.09486 0
-856.301 -4.99032 0
-854.709 -4.88527 0
-853.118 -4.77877 0
-851.526 -4.67393 0
-849.932 -4.5692 0
-848.336 -4.46607 0
-846.74 -4.36227 0
-845.145 -4.2596 0
-843.545 -4.16018 0
-841.945 -4.05826 0
-840.344 -3.95858 0
-838.742 -3.86198 0
-837.14 -3.76525 0
-835.537 -3.67374 0
-833.933 -3.58041 0
-832.326 -3.49238 0
-830.72 -3.40548 0
-829.112 -3.3219 0
-827.505 -3.24071 0
-825.896 -3.16247 0
-824.286 -3.08396 0
-822.676 -3.00982 0
-821.068 -2.94085 0
-819.458 -2.8726 0
-817.847 -2.81031 0
-816.236 -2.7472 0
-814.624 -2.68868 0
-813.013 -2.63555 0
-811.401 -2.58628 0
-809.79 -2.53631 0
-808.176 -2.49093 0
-806.565 -2.44844 0
-804.952 -2.40867 0
-803.337 -2.37308 0
-801.724 -2.34241 0
-800.112 -2.31258 0
-798.5 -2.28186 0
-796.887 -2.2617 0
-795.276 -2.24168 0
-793.663 -2.22111 0
-792.052 -2.2062 0
-790.441 -2.19459 0
-788.829 -2.1848 0
-787.218 -2.17717 0
-785.607 -2.17354 0
-783.995 -2.17217 0
-782.387 -2.17079 0
-780.777 -2.17445 0
-779.168 -2.18117 0
-777.558 -2.18644 0
-775.947 -2.19652 0
-774.339 -2.20794 0
-772.733 -2.22061 0
-771.126 -2.23586 0
-769.519 -2.25239 0
-767.91 -2.27155 0
-766.304 -2.29354 0
-764.697 -2.31571 0
-763.092 -2.33778 0
-761.486 -2.36099 0
-759.883 -2.38719 0
-758.279 -2.41484 0
-756.673 -2.44373 0
-755.07 -2.47096 0
-753.467 -2.50101 0
-751.863 -2.52896 0
-750.261 -2.55887 0
-748.659 -2.59284 0
-747.059 -2.62271 0
-745.459 -2.65439 0
-743.857 -2.68647 0
-742.258 -2.71787 0
-740.659 -2.75233 0
-739.059 -2.78304 0
-737.462 -2.81531 0
-735.864 -2.85006 0
-734.265 -2.88215 0
-732.666 -2.91418 0
-731.067 -2.94743 0
-729.472 -2.98008 0
-727.873 -3.00921 0
-726.277 -3.04099 0
-724.68 -3.07254 0
-723.083 -3.10279 0
-721.489 -3.13238 0
-719.893 -3.15839 0
-718.298 -3.18724 0
-716.703 -3.21572 0
-715.108 -3.24329 0
-713.514 -3.26619 0
-711.921 -3.29207 0
-710.328 -3.31839 0
-708.734 -3.34349 0
-707.138 -3.36736 0
-705.545 -3.38722 0
-703.951 -3.40737 0
-702.359 -3.43072 0
-700.765 -3.44746 0
-699.172 -3.4646 0
-697.58 -3.48153 0
-695.989 -3.49947 0
-694.394 -3.51379 0
-692.801 -3.52846 0
-691.209 -3.54378 0
-689.613 -3.55837 0
-688.019 -3.56933 0
-686.428 -3.57878 0
-684.836 -3.58827 0
-683.241 -3.59628 0
-681.65 -3.60529 0
-680.058 -3.61261 0
-678.465 -3.62045 0
-676.874 -3.62627 0
-675.28 -3.63186 0
-673.685 -3.63656 0
-672.091 -3.63838 0
-670.496 -3.64075 0
-668.906 -3.64114 0
-667.313 -3.64566 0
-665.719 -3.64598 0
-664.125 -3.6439 0
-662.533 -3.64086 0
-660.939 -3.63861 0
-659.344 -3.63623 0
-657.751 -3.63376 0
-656.157 -3.62835 0
-654.562 -3.6258 0
-652.97 -3.62087 0
-651.377 -3.61748 0
-649.784 -3.61045 0
-648.187 -3.60059 0
-646.59 -3.59216 0
-644.995 -3.58571 0
-643.4 -3.57717 0
-641.806 -3.56505 0
-640.212 -3.55662 0
-638.616 -3.54963 0
-637.019 -3.54183 0
-635.425 -3.53047 0
-633.829 -3.52163 0
-632.235 -3.51086 0
-630.641 -3.49973 0
-629.047 -3.49068 0
-627.452 -3.48112 0
-625.856 -3.46852 0
-624.259 -3.45476 0
-622.662 -3.44393 0
-621.066 -3.43066 0
-619.471 -3.41949 0
-617.874 -3.40766 0
-616.275 -3.39681 0
-614.677 -3.38776 0
-613.079 -3.37651 0
-611.482 -3.36383 0
-609.888 -3.35196 0
-608.291 -3.33959 0
-606.693 -3.32859 0
-605.096 -3.31457 0
-603.499 -3.30794 0
-601.899 -3.29285 0
-600.3 -3.28202 0
-598.703 -3.27002 0
-597.104 -3.26328 0
-595.506 -3.25425 0
-593.908 -3.24637 0
-592.309 -3.2376 0
-590.71 -3.22563 0
-589.111 -3.21711 0
-587.515 -3.20619 0
-585.919 -3.20059 0
-584.323 -3.18885 0
-582.723 -3.18404 0
-581.124 -3.17321 0
-579.526 -3.16315 0
-577.927 -3.15431 0
-576.329 -3.15241 0
-574.729 -3.14651 0
-573.128 -3.141 0
-571.532 -3.13828 0
-569.933 -3.12902 0
-568.334 -3.12457 0
-566.736 -3.12119 0
-565.138 -3.11577 0
-563.541 -3.10956 0
-561.941 -3.10394 0
-560.344 -3.0984 0
-558.745 -3.09839 0
-557.146 -3.09565 0
-555.545 -3.09234 0
-553.948 -3.08774 0
-552.35 -3.0849 0
-550.749 -3.08618 0
-549.149 -3.08321 0
-547.553 -3.08092 0
-545.955 -3.07614 0
-544.354 -3.0794 0
-542.754 -3.07889 0
-541.153 -3.07383 0
-539.558 -3.07358 0
-537.963 -3.0771 0
-536.364 -3.07649 0
-534.763 -3.07863 0
-533.164 -3.07809 0
-531.567 -3.07668 0
-529.968 -3.07568 0
-528.374 -3.07285 0
-526.776 -3.0727 0
-525.176 -3.07935 0
-523.579 -3.08251 0
-521.982 -3.08474 0
-520.38 -3.08559 0
-518.782 -3.08514 0
-517.184 -3.08797 0
-515.589 -3.09109 0
-513.99 -3.092 0
-512.391 -3.09381 0
-510.795 -3.09421 0
-509.197 -3.09997 0
-507.601 -3.1044 0
-506.002 -3.10847 0
-504.402 -3.10944 0
-502.806 -3.11343 0
-501.206 -3.11727 0
-499.608 -3.12029 0
-498.011 -3.12376 0
-496.418 -3.12492 0
-494.82 -3.12676 0
-493.225 -3.12941 0
-491.628 -3.13512 0
-490.031 -3.13697 0
-488.434 -3.14413 0
-486.838 -3.14724 0
-485.242 -3.14914 0
-483.646 -3.15038 0
-482.053 -3.1526 0
-480.453 -3.15611 0
-478.855 -3.1603 0
-477.261 -3.16086 0
-475.661 -3.16334 0
-474.064 -3.16459 0
-472.468 -3.1698 0
-470.871 -3.17696 0
-469.277 -3.18022 0
-467.676 -3.18461 0
-466.083 -3.18743 0
-464.487 -3.18724 0
-462.891 -3.19305 0
-461.295 -3.19057 0
-459.698 -3.1949 0
-458.1 -3.19428 0
-456.501 -3.19612 0
-454.904 -3.19838 0
-453.31 -3.20177 0
-451.713 -3.2043 0
-450.116 -3.20641 0
-448.522 -3.20767 0
-446.927 -3.21279 0
-445.333 -3.21358 0
-443.735 -3.21475 0
-442.136 -3.21771 0
-440.542 -3.21479 0
-438.945 -3.21373 0
-437.347 -3.21404 0
-435.75 -3.21537 0
-434.156 -3.2163 0
-432.561 -3.21866 0
-430.962 -3.21997 0
-429.365 -3.21378 0
-427.769 -3.21484 0
-426.173 -3.21491 0
-424.575 -3.21776 0
-422.978 -3.22026 0
-421.387 -3.21713 0
-419.791 -3.22118 0
-418.193 -3.21723 0
-416.596 -3.22308 0
-414.999 -3.22478 0
-413.401 -3.2223 0
-411.807 -3.21696 0
-410.209 -3.22162 0
-408.612 -3.21714 0
-407.015 -3.21891 0
-405.415 -3.21769 0
-403.82 -3.21759 0
-402.226 -3.22141 0
-400.63 -3.21777 0
-399.032 -3.21948 0
-397.434 -3.2134 0
-395.839 -3.21342 0
-394.243 -3.21238 0
-392.646 -3.21175 0
-391.051 -3.2066 0
-389.453 -3.2071 0
-387.858 -3.20962 0
-386.259 -3.20658 0
-384.662 -3.20635 0
-383.069 -3.20833 0
-381.47 -3.20382 0
-379.874 -3.20276 0
-378.277 -3.20181 0
-376.68 -3.19726 0
-375.08 -3.19847 0
-373.484 -3.19695 0
-371.888 -3.1956 0
-370.293 -3.19259 0
-368.696 -3.19487 0
-367.1 -3.18951 0
-365.501 -3.19089 0
-363.907 -3.18621 0
-362.308 -3.1842 0
-360.716 -3.18046 0
-359.122 -3.18278 0
-357.525 -3.18188 0
-355.928 -3.18051 0
-354.331 -3.17985 0
-352.733 -3.18058 0
-351.135 -3.18363 0
-349.539 -3.18375 0
-347.944 -3.17562 0
-346.344 -3.17524 0
-344.747 -3.17446 0
-343.154 -3.17166 0
-341.556 -3.16964 0
-339.959 -3.17144 0
-338.365 -3.17017 0
-336.766 -3.16907 0
-335.167 -3.17112 0
-333.571 -3.16644 0
-331.977 -3.1638 0
-330.379 -3.16394 0
-328.782 -3.16091 0
-327.186 -3.1591 0
-325.592 -3.16124 0
-323.995 -3.16002 0
-322.396 -3.15886 0
-320.805 -3.15974 0
-319.205 -3.16076 0
-317.613 -3.16005 0
-316.013 -3.15552 0
-314.414 -3.15554 0
-312.816 -3.15735 0
-311.219 -3.15117 0
-309.624 -3.14979 0
-308.026 -3.1516 0
-306.431 -3.1506 0
-304.835 -3.15096 0
-303.238 -3.1521 0
-301.64 -3.14884 0
-300.044 -3.14524 0
-298.452 -3.14631 0
-296.854 -3.1469 0
-295.254 -3.14405 0
-293.66 -3.14385 0
-292.065 -3.14698 0
-290.467 -3.14149 0
-288.868 -3.13897 0
-287.274 -3.14343 0
-285.681 -3.14199 0
-284.082 -3.14119 0
-282.482 -3.1403 0
-280.886 -3.13985 0
-279.289 -3.13998 0
-277.696 -3.13559 0
-276.098 -3.13642 0
-274.501 -3.13992 0
-272.905 -3.14482 0
-271.308 -3.14535 0
-269.711 -3.14117 0
-268.114 -3.13579 0
-266.52 -3.13733 0
-264.922 -3.13827 0
-263.326 -3.13855 0
-261.732 -3.14272 0
-260.136 -3.14101 0
-258.541 -3.1426 0
-256.942 -3.14088 0
-255.348 -3.14062 0
-253.751 -3.14373 0
-252.153 -3.13751 0
-250.556 -3.14007 0
-248.961 -3.13916 0
-247.369 -3.13845 0
-245.773 -3.13964 0
-244.171 -3.13734 0
-242.574 -3.13612 0
-240.981 -3.13767 0
-239.383 -3.14402 0
-237.784 -3.13929 0
-236.19 -3.13608 0
-234.595 -3.13531 0
-232.994 -3.13806 0
-231.4 -3.13958 0
-229.802 -3.14409 0
-228.204 -3.14217 0
-226.612 -3.13834 0
-225.014 -3.13389 0
-223.423 -3.13899 0
-221.828 -3.13946 0
-220.229 -3.13964 0
-218.63 -3.14394 0
-217.035 -3.14136 0
-215.437 -3.14625 0
-213.842 -3.1469 0
-212.247 -3.14468 0
-210.649 -3.14539 0
-209.059 -3.14405 0
-207.461 -3.14785 0
-205.863 -3.14726 0
-204.268 -3.14552 0
-202.672 -3.14584 0
-201.077 -3.14409 0
-199.479 -3.14915 0
-197.884 -3.1521 0
-196.287 -3.14881 0
-194.69 -3.14841 0
-193.094 -3.1512 0
-191.499 -3.1506 0
-189.902 -3.15479 0
-188.306 -3.15013 0
-186.707 -3.14965 0
-185.111 -3.1461 0
-183.517 -3.14832 0
-181.92 -3.1498 0
-180.324 -3.151 0
-178.73 -3.15096 0
-177.134 -3.14854 0
-175.535 -3.15316 0
-173.942 -3.15212 0
-172.347 -3.1534 0
-170.749 -3.15472 0
-169.156 -3.15364 0
-167.562 -3.15275 0
-165.966 -3.15541 0
-164.368 -3.15431 0
-162.774 -3.15552 0
-161.176 -3.15381 0
-159.579 -3.15235 0
-157.984 -3.15439 0
-156.387 -3.1546 0
-154.793 -3.15699 0
-153.198 -3.15238 0
-151.602 -3.15051 0
-150.006 -3.14958 0
-148.41 -3.15357 0
-146.814 -3.15323 0
-145.22 -3.15368 0
-143.624 -3.15661 0
-142.028 -3.15689 0
-140.433 -3.15282 0
-138.833 -3.15412 0
-137.235 -3.15715 0
-135.641 -3.15491 0
-134.045 -3.15617 0
-132.449 -3.15362 0
-130.855 -3.15556 0
-129.258 -3.1558 0
-127.661 -3.15599 0
-126.066 -3.15683 0
-124.471 -3.1566 0
-122.876 -3.1579 0
-121.282 -3.1578 0
-119.686 -3.15713 0
-118.092 -3.15833 0
-116.496 -3.15741 0
-114.9 -3.15519 0
-113.302 -3.15753 0
-111.707 -3.15566 0
-110.111 -3.15531 0
-108.516 -3.1545 0
-106.919 -3.15386 0
-105.323 -3.1538 0
-103.728 -3.1552 0
-102.132 -3.15631 0
-100.536 -3.15581 0
-98.94 -3.15714 0
-97.3425 -3.15347 0
-95.7466 -3.15528 0
-94.1505 -3.15618 0
-92.5566 -3.15383 0
-90.9591 -3.15396 0
-89.363 -3.15572 0
-87.7691 -3.15367 0
-86.1721 -3.15393 0
-84.5753 -3.15516 0
-82.9818 -3.15394 0
-81.3839 -3.15502 0
-79.7887 -3.15721 0
-78.1902 -3.15721 0
-76.5977 -3.15532 0
-75.0013 -3.15533 0
-73.404 -3.15317 0
-71.8075 -3.15136 0
-70.2119 -3.15296 0
-68.6179 -3.15157 0
-67.0203 -3.15094 0
-65.4238 -3.14736 0
-63.8261 -3.15031 0
-62.2347 -3.1482 0
-60.6363 -3.15014 0
-59.0398 -3.15014 0
-57.4431 -3.15399 0
-55.8496 -3.15401 0
-54.2562 -3.15418 0
-52.6572 -3.15032 0
-51.0612 -3.15356 0
-49.4647 -3.14861 0
-47.8679 -3.14889 0
-46.2748 -3.14827 0
-44.6786 -3.14729 0
-43.0784 -3.14956 0
-41.4873 -3.1519 0
-39.8932 -3.1482 0
-38.2988 -3.15236 0
-36.7011 -3.1535 0
-35.1055 -3.15168 0
-33.5109 -3.15267 0
-31.9167 -3.15275 0
-30.3185 -3.15518 0
-28.7204 -3.15032 0
-27.1239 -3.15124 0
-25.5291 -3.15279 0
-23.933 -3.1509 0
-22.3376 -3.15049 0
-20.744 -3.15053 0
-19.1468 -3.15257 0
-17.549 -3.1542 0
-15.9522 -3.15417 0
-14.3594 -3.1551 0
-12.7646 -3.15529 0
-11.1714 -3.15356 0
-9.57608 -3.15309 0
-7.97673 -3.15271 0
-6.38171 -3.15245 0
-4.78933 -3.15249 0
-3.19179 -3.15724 0
-1.59716 -3.15453 0
0 -3.15513 0
-1078.24 92.5616 0
-1078.18 82.7781 0
-1078.29 73.3709 0
-1078.34 64.203 0
-1078.33 55.305 0
-1078.22 46.7273 0
-1078.02 38.5424 0
-1077.74 30.817 0
-1077.4 23.5997 0
-1076.99 16.9314 0
-1076.52 10.823 0
-1076 5.28491 0
-1075.47 0.291144 0
-1075.01 -4.26018 0
-1074.59 -8.44106 0
-1074.22 -12.2872 0
-1073.8 -15.8069 0
-1073.33 -18.9718 0
-1072.81 -21.7571 0
-1072.26 -24.1541 0
-1071.7 -26.1719 0
-1071.13 -27.8195 0
-1070.54 -29.1206 0
-1069.94 -30.0983 0
-1069.32 -30.78 0
-1068.67 -31.199 0
-1068.01 -31.3832 0
-1067.31 -31.3507 0
-1066.58 -31.1317 0
-1065.81 -30.7406 0
-1065 -30.2029 0
-1064.15 -29.5344 0
-1063.26 -28.7512 0
-1062.33 -27.8705 0
-1061.36 -26.9025 0
-1060.34 -25.864 0
-1059.29 -24.7621 0
-1058.19 -23.6104 0
-1057.06 -22.4185 0
-1055.89 -21.1955 0
-1054.68 -19.9489 0
-1053.44 -18.6899 0
-1052.17 -17.4221 0
-1050.86 -16.1545 0
-1049.52 -14.8925 0
-1048.15 -13.6421 0
-1046.75 -12.4058 0
-1045.33 -11.1896 0
-1043.88 -9.99638 0
-1042.4 -8.82898 0
-1040.9 -7.69194 0
-1039.38 -6.58862 0
-1037.84 -5.52033 0
-1036.29 -4.48973 0
-1034.71 -3.49793 0
-1033.12 -2.5473 0
-1031.51 -1.63839 0
-1029.89 -0.771828 0
-1028.25 0.0511691 0
-1026.6 0.829676 0
-1024.95 1.56362 0
-1023.28 2.2532 0
-1021.6 2.8991 0
-1019.91 3.49944 0
-1018.22 4.05499 0
-1016.52 4.56903 0
-1014.81 5.03619 0
-1013.1 5.46158 0
-1011.38 5.84455 0
-1009.66 6.18618 0
-1007.94 6.48545 0
-1006.22 6.74673 0
-1004.49 6.96765 0
-1002.76 7.1532 0
-1001.04 7.30193 0
-999.308 7.41538 0
-997.582 7.49375 0
-995.856 7.54004 0
-994.131 7.5533 0
-992.409 7.53928 0
-990.689 7.49388 0
-988.972 7.42162 0
-987.258 7.32254 0
-985.547 7.20053 0
-983.84 7.05387 0
-982.137 6.88536 0
-980.438 6.69765 0
-978.742 6.4905 0
-977.052 6.26518 0
-975.365 6.02404 0
-973.683 5.76784 0
-972.007 5.49821 0
-970.334 5.21703 0
-968.666 4.92577 0
-967.004 4.62447 0
-965.347 4.31479 0
-963.693 3.99753 0
-962.044 3.67751 0
-960.401 3.35088 0
-958.762 3.0207 0
-957.129 2.68839 0
-955.5 2.35391 0
-953.874 2.02001 0
-952.254 1.68581 0