<?xml version="1.0"?>
<VTKFile type="StructuredGrid"  version="0.1" byte_order="LittleEndian" compressor="vtkZLibDataCompressor">
  <StructuredGrid WholeExtent="0 700 0 30 0 0">
    <Piece Extent="0 700 0 30 0 0">
      <PointData Vectors="Velocity">
        <DataArray type="Float32" Name="Velocity" NumberOfComponents="3" format="ascii">
-1078.07 109.227 0
-1078.45 98.7732 0
-1078.89 88.449 0
-1079.35 78.3454 0
-1079.82 68.4972 0
-1080.33 58.9633 0
-1080.9 49.8258 0
-1081.5 41.1529 0
-1082.11 32.9688 0
-1082.72 25.3161 0
-1083.3 18.1964 0
-1083.86 11.6385 0
-1084.38 5.66148 0
-1084.8 0.250132 0
-1085.11 -4.68504 0
-1085.26 -9.33725 0
-1085.52 -13.7003 0
-1085.8 -17.6935 0
-1086.05 -21.3034 0
-1086.26 -24.5281 0
-1086.46 -27.3586 0
-1086.63 -29.8057 0
-1086.76 -31.8954 0
-1086.85 -33.6342 0
-1086.87 -35.0525 0
-1086.84 -36.1625 0
-1086.74 -37.0015 0
-1086.56 -37.5801 0
-1086.32 -37.9351 0
-1086 -38.0784 0
-1085.61 -38.0285 0
-1085.15 -37.8115 0
-1084.62 -37.4353 0
-1084.01 -36.9133 0
-1083.34 -36.2643 0
-1082.61 -35.5016 0
-1081.8 -34.6352 0
-1080.94 -33.6874 0
-1080.01 -32.6497 0
-1079.03 -31.5519 0
-1077.99 -30.3893 0
-1076.89 -29.1828 0
-1075.74 -27.9315 0
-1074.54 -26.6572 0
-1073.29 -25.3536 0
-1072 -24.0314 0
-1070.67 -22.6992 0
-1069.29 -21.3619 0
-1067.87 -20.0254 0
-1066.41 -18.6966 0
-1064.92 -17.3744 0
-1063.4 -16.0688 0
-1061.85 -14.78 0
-1060.27 -13.5139 0
-1058.66 -12.2709 0
-1057.02 -11.0569 0
-1055.36 -9.87497 0
-1053.68 -8.72316 0
-1051.98 -7.60918 0
-1050.26 -6.52505 0
-1048.52 -5.4812 0
-1046.77 -4.47676 0
-1045 -3.51392 0
-1043.22 -2.59284 0
-1041.42 -1.71488 0
-1039.62 -0.874792 0
-1037.8 -0.0827804 0
-1035.98 0.666755 0
-1034.14 1.37375 0
-1032.3 2.03306 0
-1030.46 2.65308 0
-1028.61 3.22863 0
-1026.76 3.75948 0
-1024.9 4.24722 0
-1023.04 4.69473 0
-1021.18 5.10036 0
-1019.33 5.46206 0
-1017.47 5.78858 0
-1015.61 6.07192 0
-1013.75 6.31671 0
-1011.9 6.52195 0
-1010.04 6.69282 0
-1008.19 6.82496 0
-1006.35 6.92417 0
-1004.51 6.98837 0
-1002.67 7.02369 0
-1000.83 7.02275 0
-999.007 6.99436 0
-997.184 6.93521 0
-995.37 6.84921 0
-993.559 6.73735 0
-991.757 6.6005 0
-989.958 6.43577 0
-988.17 6.25185 0
-986.386 6.04525 0
-984.612 5.81882 0
-982.844 5.57214 0
-981.083 5.31109 0
-979.329 5.02969 0
-977.583 4.73516 0
-975.843 4.42727 0
-974.112 4.10676 0
-972.39 3.77259 0
-970.674 3.4298 0
-968.967 3.07743 0
-967.266 2.71864 0
-965.573 2.35282 0
-963.885 1.98079 0
-962.205 1.60501 0
-960.53 1.22416 0
-958.866 0.841039 0
-957.208 0.458468 0
-955.555 0.0764855 0
-953.906 -0.30941 0
-952.265 -0.688599 0
-950.628 -1.07011 0
-948.998 -1.44437 0
-947.375 -1.81703 0
-945.756 -2.18304 0
-944.141 -2.54559 0
-942.533 -2.90311 0
-940.929 -3.25248 0
-939.328 -3.59503 0
-937.732 -3.92938 0
-936.139 -4.25435 0
-934.547 -4.5718 0
-932.964 -4.88123 0
-931.38 -5.18067 0
-929.8 -5.46967 0
-928.224 -5.74709 0
-926.65 -6.01505 0
-925.075 -6.27311 0
-923.505 -6.52069 0
-921.938 -6.75339 0
-920.371 -6.9757 0
-918.803 -7.18463 0
-917.239 -7.38566 0
-915.675 -7.574 0
-914.11 -7.75253 0
-912.546 -7.9141 0
-910.982 -8.06656 0
-909.42 -8.20815 0
-907.86 -8.33928 0
-906.297 -8.45869 0
-904.736 -8.56601 0
-903.172 -8.66416 0
-901.608 -8.74895 0
-900.044 -8.82189 0
-898.479 -8.88578 0
-896.91 -8.93977 0
-895.345 -8.98323 0
-893.776 -9.01643 0
-892.207 -9.0385 0
-890.637 -9.05232 0
-889.064 -9.05891 0
-887.49 -9.05607 0
-885.915 -9.04467 0
-884.337 -9.02374 0
-882.759 -8.99484 0
-881.178 -8.96238 0
-879.596 -8.9205 0
-878.014 -8.87137 0
-876.428 -8.81572 0
-874.842 -8.75257 0
-873.251 -8.68473 0
-871.66 -8.61038 0
-870.066 -8.53143 0
-868.47 -8.44521 0
-866.875 -8.35639 0
-865.274 -8.26484 0
-863.675 -8.16794 0
-862.071 -8.06767 0
-860.468 -7.96352 0
-858.86 -7.85686 0
-857.251 -7.74636 0
-855.641 -7.63356 0
-854.028 -7.51779 0
-852.415 -7.40215 0
-850.798 -7.28393 0
-849.18 -7.16437 0
-847.562 -7.04186 0
-845.94 -6.92614 0
-844.318 -6.805 0
-842.694 -6.68184 0
-841.069 -6.56353 0
-839.443 -6.44101 0
-837.813 -6.32468 0
-836.184 -6.20088 0
-834.553 -6.08403 0
-832.92 -5.96677 0
-831.286 -5.85128 0
-829.653 -5.73686 0
-828.016 -5.62399 0
-826.378 -5.51213 0
-824.741 -5.40506 0
-823.102 -5.29531 0
-821.46 -5.19021 0
-819.815 -5.08871 0
-818.172 -4.99028 0
-816.531 -4.89365 0
-814.886 -4.79967 0
-813.244 -4.70925 0
-811.596 -4.61646 0
-809.949 -4.52957 0
-808.305 -4.44491 0
-806.657 -4.36483 0
-805.01 -4.29124 0
-803.365 -4.21885 0
-801.713 -4.14609 0
-800.066 -4.0786 0
-798.416 -4.0168 0
-796.767 -3.95611 0
-795.116 -3.90076 0
-793.468 -3.84738 0
-791.816 -3.79526 0
-790.165 -3.74852 0
-788.517 -3.70273 0
-786.866 -3.66381 0
-785.218 -3.62704 0
-783.567 -3.59398 0
-781.919 -3.56426 0
-780.268 -3.53713 0
-778.621 -3.51421 0
-776.972 -3.49361 0
-775.326 -3.47647 0
-773.679 -3.46182 0
-772.03 -3.44949 0
-770.38 -3.4392 0
-768.732 -3.42972 0
-767.088 -3.42502 0
-765.44 -3.4249 0
-763.795 -3.42658 0
-762.148 -3.43056 0
-760.505 -3.43414 0
-758.86 -3.44376 0
-757.215 -3.45239 0
-755.575 -3.46932 0
-753.928 -3.48338 0
-752.286 -3.49733 0
-750.645 -3.51709 0
-749.003 -3.5362 0
-747.36 -3.56044 0
-745.72 -3.58119 0
-744.08 -3.60659 0
-742.437 -3.63514 0
-740.799 -3.66157 0
-739.16 -3.69206 0
-737.524 -3.72171 0
-735.888 -3.75275 0
-734.25 -3.78632 0
-732.613 -3.82009 0
-730.978 -3.85425 0
-729.343 -3.8932 0
-727.708 -3.92585 0
-726.075 -3.96148 0
-724.441 -4.0019 0
-722.807 -4.04005 0
-721.17 -4.07393 0
-719.539 -4.1131 0
-717.908 -4.15241 0
-716.276 -4.19245 0
-714.646 -4.23042 0
-713.015 -4.2713 0
-711.383 -4.31142 0
-709.756 -4.34839 0
-708.125 -4.38934 0
-706.495 -4.42664 0
-704.868 -4.46608 0
-703.242 -4.50361 0
-701.614 -4.53858 0
-699.987 -4.5786 0
-698.362 -4.61524 0
-696.734 -4.65174 0
-695.105 -4.68378 0
-693.48 -4.71978 0
-691.856 -4.75289 0
-690.228 -4.7848 0
-688.601 -4.8169 0
-686.98 -4.85384 0
-685.353 -4.88295 0
-683.732 -4.91613 0
-682.109 -4.9455 0
-680.484 -4.97532 0
-678.859 -4.99629 0
-677.235 -5.02575 0
-675.609 -5.05713 0
-673.985 -5.08392 0
-672.363 -5.10867 0
-670.741 -5.13156 0
-669.117 -5.1531 0
-667.492 -5.16906 0
-665.87 -5.19193 0
-664.246 -5.21147 0
-662.625 -5.22771 0
-661.002 -5.2409 0
-659.379 -5.25896 0
-657.756 -5.27375 0
-656.136 -5.28979 0
-654.513 -5.30124 0
-652.89 -5.31324 0
-651.266 -5.32858 0
-649.645 -5.33859 0
-648.02 -5.34543 0
-646.395 -5.35757 0
-644.773 -5.36229 0
-643.152 -5.3685 0
-641.527 -5.37272 0
-639.901 -5.37999 0
-638.277 -5.38161 0
-636.654 -5.38835 0
-635.03 -5.39101 0
-633.404 -5.39377 0
-631.781 -5.39143 0
-630.161 -5.39265 0
-628.538 -5.39015 0
-626.916 -5.38754 0
-625.291 -5.38437 0
-623.665 -5.38556 0
-622.042 -5.37734 0
-620.417 -5.37381 0
-618.79 -5.37207 0
-617.167 -5.36684 0
-615.537 -5.3583 0
-613.913 -5.35373 0
-612.286 -5.34251 0
-610.662 -5.33488 0
-609.036 -5.32961 0
-607.411 -5.32186 0
-605.786 -5.31055 0
-604.162 -5.30039 0
-602.534 -5.29439 0
-600.909 -5.28123 0
-599.284 -5.27332 0
-597.658 -5.25502 0
-596.031 -5.24752 0
-594.404 -5.23778 0
-592.773 -5.22557 0
-591.145 -5.21411 0
-589.519 -5.20356 0
-587.89 -5.18635 0
-586.262 -5.17739 0
-584.64 -5.1627 0
-583.01 -5.14768 0
-581.379 -5.137 0
-579.75 -5.12127 0
-578.124 -5.11088 0
-576.489 -5.10048 0
-574.866 -5.08577 0
-573.237 -5.0736 0
-571.607 -5.05793 0
-569.976 -5.04494 0
-568.345 -5.03323 0
-566.714 -5.01912 0
-565.083 -5.00649 0
-563.451 -4.99922 0
-561.826 -4.98307 0
-560.2 -4.97795 0
-558.568 -4.96327 0
-556.938 -4.94666 0
-555.309 -4.93956 0
-553.678 -4.92883 0
-552.046 -4.92042 0
-550.413 -4.9113 0
-548.788 -4.90048 0
-547.157 -4.88908 0
-545.524 -4.8803 0
-543.894 -4.87091 0
-542.264 -4.85897 0
-540.637 -4.85076 0
-539.001 -4.83922 0
-537.372 -4.83411 0
-535.741 -4.82577 0
-534.113 -4.81868 0
-532.482 -4.80808 0
-530.849 -4.80148 0
-529.218 -4.79117 0
-527.584 -4.78853 0
-525.954 -4.78425 0
-524.324 -4.77668 0
-522.691 -4.76961 0
-521.064 -4.7655 0
-519.429 -4.75736 0
-517.796 -4.75331 0
-516.166 -4.75186 0
-514.531 -4.74813 0
-512.905 -4.74149 0
-511.271 -4.74142 0
-509.644 -4.73529 0
-508.016 -4.73551 0
-506.385 -4.72905 0
-504.753 -4.72069 0
-503.121 -4.72264 0
-501.486 -4.72714 0
-499.858 -4.72211 0
-498.231 -4.72121 0
-496.598 -4.71892 0
-494.97 -4.71614 0
-493.337 -4.71342 0
-491.709 -4.71377 0
-490.078 -4.71473 0
-488.448 -4.71411 0
-486.818 -4.7187 0
-485.185 -4.71847 0
-483.561 -4.72477 0
-481.931 -4.7208 0
-480.299 -4.72454 0
-478.67 -4.72502 0
-477.042 -4.73008 0
-475.409 -4.73128 0
-473.777 -4.73467 0
-472.147 -4.73697 0
-470.52 -4.73719 0
-468.891 -4.74093 0
-467.263 -4.74239 0
-465.632 -4.74862 0
-463.996 -4.75118 0
-462.367 -4.75875 0
-460.736 -4.75983 0
-459.107 -4.76227 0
-457.475 -4.77226 0
-455.846 -4.77075 0
-454.215 -4.78017 0
-452.586 -4.77881 0
-450.963 -4.78293 0
-449.334 -4.78963 0
-447.7 -4.79173 0
-446.071 -4.79977 0
-444.446 -4.80047 0
-442.817 -4.80381 0
-441.188 -4.80916 0
-439.561 -4.81507 0
-437.932 -4.81738 0
-436.303 -4.8218 0
-434.675 -4.82371 0
-433.047 -4.82607 0
-431.42 -4.83176 0
-429.791 -4.835 0
-428.163 -4.83722 0
-426.532 -4.84115 0
-424.902 -4.84041 0
-423.272 -4.84436 0
-421.644 -4.85668 0
-420.016 -4.86192 0
-418.39 -4.86532 0
-416.756 -4.86829 0
-415.13 -4.87824 0
-413.5 -4.88168 0
-411.872 -4.88287 0
-410.244 -4.88733 0
-408.621 -4.89172 0
-406.993 -4.8981 0
-405.363 -4.89686 0
-403.732 -4.89998 0
-402.106 -4.90004 0
-400.484 -4.9077 0
-398.852 -4.90532 0
-397.222 -4.91137 0
-395.596 -4.91231 0
-393.97 -4.91201 0
-392.342 -4.91695 0
-390.714 -4.91453 0
-389.084 -4.91948 0
-387.453 -4.92968 0
-385.829 -4.93172 0
-384.197 -4.93135 0
-382.566 -4.93994 0
-380.939 -4.94033 0
-379.311 -4.93775 0
-377.684 -4.94478 0
-376.063 -4.94228 0
-374.433 -4.94866 0
-372.802 -4.94635 0
-371.175 -4.95021 0
-369.55 -4.95088 0
-367.92 -4.94769 0
-366.296 -4.94937 0
-364.666 -4.94614 0
-363.036 -4.94544 0
-361.413 -4.94936 0
-359.78 -4.95099 0
-358.153 -4.95349 0
-356.521 -4.95357 0
-354.891 -4.94558 0
-353.261 -4.95469 0
-351.638 -4.94806 0
-350.014 -4.95165 0
-348.386 -4.94995 0
-346.754 -4.94888 0
-345.128 -4.95105 0
-343.501 -4.94687 0
-341.875 -4.94215 0
-340.245 -4.94142 0
-338.617 -4.94526 0
-336.991 -4.9444 0
-335.361 -4.94313 0
-333.736 -4.93673 0
-332.107 -4.94002 0
-330.477 -4.93836 0
-328.848 -4.93764 0
-327.216 -4.94322 0
-325.592 -4.94147 0
-323.964 -4.94138 0
-322.341 -4.94285 0
-320.711 -4.93453 0
-319.087 -4.93016 0
-317.45 -4.92603 0
-315.819 -4.9237 0
-314.192 -4.92406 0
-312.57 -4.9238 0
-310.94 -4.92278 0
-309.313 -4.92198 0
-307.682 -4.92395 0
-306.059 -4.92634 0
-304.429 -4.92476 0
-302.803 -4.91796 0
-301.169 -4.91341 0
-299.541 -4.91405 0
-297.914 -4.91071 0
-296.292 -4.91148 0
-294.666 -4.91167 0
-293.033 -4.90807 0
-291.404 -4.90308 0
-289.777 -4.90449 0
-288.145 -4.89981 0
-286.515 -4.90065 0
-284.888 -4.9005 0
-283.259 -4.89565 0
-281.631 -4.89542 0
-280.004 -4.89286 0
-278.376 -4.89514 0
-276.751 -4.89278 0
-275.126 -4.88667 0
-273.495 -4.88327 0
-271.869 -4.88413 0
-270.238 -4.88896 0
-268.608 -4.88431 0
-266.976 -4.87975 0
-265.35 -4.88611 0
-263.721 -4.87648 0
-262.099 -4.87391 0
-260.467 -4.86935 0
-258.838 -4.87102 0
-257.208 -4.8695 0
-255.582 -4.86774 0
-253.954 -4.86385 0
-252.322 -4.86072 0
-250.693 -4.85882 0
-249.062 -4.8561 0
-247.431 -4.85876 0
-245.798 -4.85204 0
-244.173 -4.85394 0
-242.546 -4.84887 0
-240.925 -4.85372 0
-239.295 -4.84822 0
-237.664 -4.84384 0
-236.034 -4.84572 0
-234.408 -4.84114 0
-232.778 -4.839 0
-231.149 -4.83736 0
-229.519 -4.83905 0
-227.89 -4.83918 0
-226.254 -4.8354 0
-224.634 -4.83839 0
-223.003 -4.83748 0
-221.378 -4.83483 0
-219.749 -4.83512 0
-218.122 -4.83184 0
-216.496 -4.8303 0
-214.87 -4.83055 0
-213.24 -4.83324 0
-211.613 -4.83624 0
-209.982 -4.83476 0
-208.357 -4.82808 0
-206.727 -4.82876 0
-205.1 -4.82458 0
-203.473 -4.82631 0
-201.845 -4.82723 0
-200.217 -4.82726 0
-198.587 -4.83235 0
-196.962 -4.83341 0
-195.339 -4.82729 0
-193.711 -4.82712 0
-192.076 -4.82894 0
-190.451 -4.83009 0
-188.816 -4.82466 0
-187.19 -4.82332 0
-185.562 -4.82415 0
-183.934 -4.8268 0
-182.306 -4.8259 0
-180.679 -4.82778 0
-179.046 -4.82912 0
-177.415 -4.82048 0
-175.79 -4.82464 0
-174.164 -4.82018 0
-172.538 -4.81626 0
-170.913 -4.81808 0
-169.281 -4.81856 0
-167.655 -4.81429 0
-166.022 -4.81919 0
-164.395 -4.81724 0
-162.769 -4.81175 0
-161.137 -4.81486 0
-159.505 -4.81341 0
-157.882 -4.81086 0
-156.253 -4.81216 0
-154.629 -4.8176 0
-153.003 -4.81168 0
-151.368 -4.81606 0
-149.744 -4.81025 0
-148.115 -4.81506 0
-146.486 -4.81693 0
-144.86 -4.82002 0
-143.232 -4.8164 0
-141.607 -4.81657 0
-139.977 -4.81677 0
-138.351 -4.82158 0
-136.717 -4.81977 0
-135.094 -4.81822 0
-133.466 -4.82016 0
-131.84 -4.82374 0
-130.208 -4.81496 0
-128.581 -4.81424 0
-126.953 -4.82007 0
-125.323 -4.82429 0
-123.692 -4.82498 0
-122.066 -4.81837 0
-120.441 -4.8231 0
-118.816 -4.8218 0
-117.18 -4.81845 0
-115.553 -4.81714 0
-113.927 -4.81508 0
-112.308 -4.82275 0
-110.677 -4.82623 0
-109.047 -4.8238 0
-107.416 -4.82203 0
-105.784 -4.82953 0
-104.157 -4.82667 0
-102.534 -4.82551 0
-100.906 -4.82296 0
-99.2827 -4.82658 0
-97.6562 -4.82709 0
-96.0227 -4.8258 0
-94.3929 -4.82802 0
-92.7634 -4.8274 0
-91.1326 -4.82549 0
-89.5055 -4.8252 0
-87.8781 -4.82379 0
-86.2548 -4.83053 0
-84.6291 -4.82856 0
-83.0012 -4.84045 0
-81.3733 -4.83072 0
-79.7436 -4.82705 0
-78.1172 -4.83198 0
-76.4887 -4.83336 0
-74.8577 -4.82504 0
-73.2384 -4.83706 0
-71.6105 -4.83069 0
-69.978 -4.82822 0
-68.3485 -4.83726 0
-66.7272 -4.84506 0
-65.1044 -4.83487 0
-63.4713 -4.83299 0
-61.8389 -4.83358 0
-60.2133 -4.84071 0
-58.5928 -4.83939 0
-56.9579 -4.83755 0
-55.3299 -4.83383 0
-53.6955 -4.83956 0
-52.0732 -4.83686 0
-50.4453 -4.8338 0
-48.8217 -4.8364 0
-47.1936 -4.83725 0
-45.5742 -4.84248 0
-43.9382 -4.84176 0
-42.311 -4.83919 0
-40.6775 -4.83904 0
-39.0521 -4.83953 0
-37.4259 -4.83653 0
-35.7926 -4.83947 0
-34.164 -4.84011 0
-32.5413 -4.84077 0
-30.9126 -4.83084 0
-29.286 -4.83735 0
-27.6609 -4.83721 0
-26.0302 -4.84047 0
-24.4072 -4.84284 0
-22.7824 -4.83042 0
-21.1512 -4.83365 0
-19.5208 -4.835 0
-17.9022 -4.8389 0
-16.2768 -4.84208 0
-14.6528 -4.83659 0
-13.0237 -4.83586 0
-11.399 -4.83861 0
-9.77176 -4.83624 0
-8.13576 -4.83353 0
-6.50795 -4.83946 0
-4.88219 -4.83345 0
-3.25044 -4.82713 0
-1.62896 -4.83026 0
0 -4.83508 0
-1088.52 109.636 0
-1088.79 99.1347 0
-1089.06 88.783 0
-1089.31 78.6562 0
-1089.53 68.78 0
-1089.72 59.2057 0
-1089.86 50.0183 0
-1089.97 41.2985 0
-1090.06 33.0766 0
-1090.12 25.3944 0
-1090.14 18.2618 0
-1090.1 11.7034 0
-1090.01 5.73196 0
-1089.91 0.343409 0
-1089.85 -4.59651 0
-1089.85 -9.24905 0
-1089.76 -13.6227 0
-1089.64 -17.6232 0
-1089.5 -21.2339 0
-1089.34 -24.4532 0
-1089.16 -27.2808 0
-1088.96 -29.7174 0
-1088.73 -31.7838 0
-1088.47 -33.495 0
-1088.18 -34.8697 0
-1087.85 -35.9343 0
-1087.48 -36.7227 0
-1087.06 -37.2472 0
-1086.59 -37.5449 0
-1086.07 -37.6276 0
-1085.5 -37.5201 0
-1084.87 -37.2362 0
-1084.18 -36.8008 0
-1083.44 -36.219 0
-1082.65 -35.5103 0
-1081.81 -34.6875 0
-1080.91 -33.7648 0
-1079.96 -32.7549 0
-1078.96 -31.6699 0
-1077.91 -30.5137 0
-1076.82 -29.3021 0
-1075.68 -28.0439 0
-1074.49 -26.747 0
-1073.27 -25.4265 0
-1072 -24.0786 0
-1070.69 -22.7154 0
-1069.35 -21.3435 0
-1067.97 -19.969 0
-1066.55 -18.5974 0
-1065.11 -17.2309 0
-1063.63 -15.8798 0
-1062.12 -14.5434 0
-1060.59 -13.227 0
-1059.03 -11.9331 0
-1057.45 -10.6672 0
-1055.84 -9.43008 0
-1054.21 -8.22471 0
-1052.57 -7.05331 0
-1050.9 -5.9206 0
-1049.22 -4.82102 0
-1047.52 -3.76211 0
-1045.8 -2.74071 0
-1044.07 -1.76553 0
-1042.33 -0.834243 0
-1040.58 0.0568742 0
-1038.82 0.903239 0
-1037.04 1.70714 0
-1035.26 2.46459 0
-1033.47 3.17673 0
-1031.68 3.84382 0
-1029.88 4.46676 0
-1028.07 5.0454 0
-1026.26 5.5818 0
-1024.45 6.07097 0
-1022.63 6.51848 0
-1020.81 6.9264 0
-1018.99 7.28863 0
-1017.17 7.61366 0
-1015.35 7.89583 0
-1013.54 8.14 0
-1011.72 8.34493 0
-1009.9 8.51206 0
-1008.08 8.64203 0
-1006.27 8.73678 0
-1004.46 8.7974 0
-1002.66 8.82832 0
-1000.85 8.82403 0
-999.055 8.78899 0
-997.26 8.72538 0
-995.471 8.63435 0
-993.687 8.51466 0
-991.907 8.37228 0
-990.134 8.20369 0
-988.367 8.0114 0
-986.604 7.79831 0
-984.849 7.56522 0
-983.098 7.31374 0
-981.354 7.04446 0
-979.616 6.75639 0
-977.883 6.45547 0
-976.158 6.1401 0
-974.441 5.81163 0
-972.727 5.47386 0
-971.022 5.12347 0
-969.32 4.76492 0
-967.626 4.39775 0
-965.938 4.02588 0
-964.257 3.64756 0
-962.579 3.26481 0
-960.909 2.87737 0
-959.245 2.48863 0
-957.587 2.10003 0
-955.934 1.71238 0
-954.287 1.32293 0
-952.642 0.936499 0
-951.005 0.55117 0
-949.371 0.170889 0
-947.742 -0.206003 0
-946.117 -0.577126 0
-944.499 -0.945516 0
-942.883 -1.30554 0
-941.271 -1.65967 0
-939.663 -2.00603 0
-938.058 -2.3439 0
-936.456 -2.67231 0
-934.858 -2.99314 0
-933.263 -3.30526 0
-931.671 -3.60683 0
-930.082 -3.89923 0
-928.494 -4.17881 0
-926.908 -4.44858 0
-925.324 -4.70853 0
-923.743 -4.95677 0
-922.162 -5.19164 0
-920.584 -5.41604 0
-919.006 -5.62658 0
-917.431 -5.8271 0
-915.855 -6.01738 0
-914.279 -6.19377 0
-912.704 -6.35834 0
-911.13 -6.51089 0
-909.556 -6.654 0
-907.982 -6.78368 0
-906.409 -6.90322 0
-904.835 -7.01011 0
-903.261 -7.1071 0
-901.686 -7.19136 0
-900.111 -7.26323 0
-898.535 -7.32728 0
-896.958 -7.37898 0
-895.382 -7.42238 0
-893.804 -7.45497 0
-892.226 -7.47814 0
-890.646 -7.49069 0
-889.066 -7.49425 0
-887.482 -7.48985 0
-885.897 -7.47738 0
-884.313 -7.45527 0
-882.729 -7.42547 0
-881.14 -7.39059 0
-879.55 -7.34739 0
-877.959 -7.29593 0
-876.369 -7.23784 0
-874.775 -7.17351 0
-873.18 -7.10288 0
-871.583 -7.02685 0
-869.985 -6.94717 0
-868.384 -6.8607 0
-866.783 -6.77045 0
-865.181 -6.67636 0
-863.576 -6.57708 0
-861.969 -6.47551 0
-860.36 -6.36811 0
-858.752 -6.26115 0
-857.141 -6.14756 0
-855.529 -6.03356 0
-853.916 -5.91595 0
-852.298 -5.79848 0
-850.682 -5.67891 0
-849.064 -5.55836 0
-847.444 -5.43802 0
-845.822 -5.31571 0
-844.198 -5.19516 0
-842.576 -5.07159 0
-840.951 -4.94962 0
-839.324 -4.82756 0
-837.695 -4.70676 0
-836.067 -4.58466 0
-834.437 -4.46563 0
-832.805 -4.34775 0
-831.173 -4.2314 0
-829.54 -4.11474 0
-827.905 -4.00215 0
-826.27 -3.88811 0
-824.632 -3.77811 0
-822.995 -3.66941 0
-821.357 -3.56167 0
-819.718 -3.46006 0
-818.078 -3.36072 0
-816.437 -3.26446 0
-814.795 -3.16922 0
-813.153 -3.07551 0
-811.51 -2.98403 0
-809.867 -2.89949 0
-808.225 -2.81395 0
-806.581 -2.73286 0
-804.936 -2.65706 0
-803.291 -2.58488 0
-801.645 -2.51145 0
-799.999 -2.44468 0
-798.353 -2.38044 0
-796.707 -2.3213 0
-795.06 -2.26567 0
-793.414 -2.21337 0
-791.768 -2.1599 0
-790.122 -2.11333 0
-788.475 -2.069 0
-786.829 -2.0304 0
-785.184 -1.99194 0
-783.537 -1.9572 0
-781.891 -1.92921 0
-780.247 -1.90327 0
-778.601 -1.8805 0
-776.954 -1.85913 0
-775.309 -1.84357 0
-773.665 -1.82768 0
-772.02 -1.81268 0
-770.374 -1.80565 0
-768.728 -1.79653 0
-767.085 -1.79275 0
-765.44 -1.79339 0
-763.798 -1.7946 0
-762.155 -1.7989 0
-760.512 -1.80591 0
-758.87 -1.81293 0
-757.228 -1.82532 0
-755.587 -1.83751 0
-753.946 -1.85402 0
-752.305 -1.86943 0
-750.663 -1.88942 0
-749.024 -1.90906 0
-747.383 -1.93126 0
-745.743 -1.95325 0
-744.106 -1.98068 0
-742.466 -2.00836 0
-740.827 -2.03674 0
-739.19 -2.06609 0
-737.552 -2.09746 0
-735.918 -2.12995 0
-734.282 -2.16485 0
-732.647 -2.19664 0
-731.014 -2.2345 0
-729.378 -2.26968 0
-727.743 -2.30531 0
-726.108 -2.3411 0
-724.475 -2.379 0
-722.841 -2.41969 0
-721.21 -2.4565 0
-719.576 -2.49452 0
-717.945 -2.53388 0
-716.313 -2.57434 0
-714.683 -2.61504 0
-713.053 -2.65609 0
-711.423 -2.69467 0
-709.793 -2.73345 0
-708.166 -2.77279 0
-706.535 -2.81362 0
-704.908 -2.85091 0
-703.279 -2.88993 0
-701.65 -2.92473 0
-700.023 -2.96288 0
-698.393 -2.99784 0
-696.769 -3.0357 0
-695.142 -3.06819 0
-693.515 -3.10589 0
-691.887 -3.13969 0
-690.261 -3.17432 0
-688.637 -3.20556 0
-687.011 -3.2415 0
-685.387 -3.27113 0
-683.762 -3.30242 0
-682.135 -3.33368 0
-680.511 -3.36198 0
-678.884 -3.38754 0
-677.262 -3.41487 0
-675.635 -3.44306 0
-674.009 -3.47092 0
-672.383 -3.49703 0
-670.76 -3.51862 0
-669.134 -3.54114 0
-667.511 -3.56037 0
-665.89 -3.58153 0
-664.265 -3.5976 0
-662.641 -3.61596 0
-661.018 -3.63389 0
-659.396 -3.64638 0
-657.771 -3.6658 0
-656.149 -3.67768 0
-654.524 -3.69243 0
-652.901 -3.70642 0
-651.277 -3.71846 0
-649.651 -3.72837 0
-648.029 -3.73628 0
-646.402 -3.74318 0
-644.779 -3.75482 0
-643.154 -3.758 0
-641.53 -3.76272 0
-639.905 -3.7675 0
-638.282 -3.77038 0
-636.659 -3.77709 0
-635.034 -3.77838 0
-633.408 -3.78116 0
-631.784 -3.78314 0
-630.16 -3.78175 0
-628.537 -3.77859 0
-626.912 -3.7749 0
-625.288 -3.77213 0
-623.662 -3.77254 0
-622.038 -3.76721 0
-620.411 -3.76165 0
-618.785 -3.7577 0
-617.158 -3.7533 0
-615.533 -3.7456 0
-613.904 -3.74073 0
-612.279 -3.73197 0
-610.656 -3.72317 0
-609.032 -3.7156 0
-607.403 -3.70743 0
-605.774 -3.69744 0
-604.149 -3.68601 0
-602.525 -3.67893 0
-600.897 -3.66937 0
-599.27 -3.65315 0
-597.644 -3.64306 0
-596.021 -3.63176 0
-594.393 -3.62271 0
-592.764 -3.60993 0
-591.135 -3.59822 0
-589.508 -3.58693 0
-587.877 -3.57074 0
-586.251 -3.56337 0
-584.622 -3.54785 0
-582.995 -3.53339 0
-581.366 -3.51852 0
-579.737 -3.50711 0
-578.11 -3.4967 0
-576.479 -3.48301 0
-574.851 -3.47229 0
-573.221 -3.45868 0
-571.592 -3.4417 0
-569.963 -3.42749 0
-568.331 -3.41602 0
-566.703 -3.40275 0
-565.075 -3.39212 0
-563.446 -3.38083 0
-561.816 -3.36883 0
-560.186 -3.35837 0
-558.554 -3.34573 0
-556.924 -3.33454 0
-555.295 -3.32157 0
-553.666 -3.30992 0
-552.035 -3.30195 0
-550.405 -3.29293 0
-548.773 -3.28255 0
-547.148 -3.2742 0
-545.517 -3.2613 0
-543.884 -3.25365 0
-542.255 -3.2391 0
-540.622 -3.2318 0
-538.992 -3.22401 0
-537.362 -3.21739 0
-535.731 -3.20789 0
-534.102 -3.19862 0
-532.47 -3.18912 0
-530.84 -3.18191 0
-529.209 -3.17762 0
-527.581 -3.16856 0
-525.948 -3.16685 0
-524.318 -3.15799 0
-522.685 -3.15351 0
-521.054 -3.14466 0
-519.423 -3.14172 0
-517.793 -3.13538 0
-516.16 -3.13445 0
-514.53 -3.12899 0
-512.902 -3.12597 0
-511.274 -3.12129 0
-509.641 -3.12077 0
-508.01 -3.11888 0
-506.376 -3.10974 0
-504.75 -3.10791 0
-503.119 -3.10266 0
-501.49 -3.10931 0
-499.859 -3.10753 0
-498.226 -3.10232 0
-496.595 -3.10131 0
-494.965 -3.0991 0
-493.333 -3.09653 0
-491.705 -3.09868 0
-490.077 -3.09674 0
-488.449 -3.10023 0
-486.819 -3.10118 0
-485.189 -3.10115 0
-483.559 -3.10636 0
-481.93 -3.1051 0
-480.299 -3.10504 0
-478.669 -3.11105 0
-477.039 -3.11123 0
-475.411 -3.11341 0
-473.782 -3.11462 0
-472.152 -3.12035 0
-470.522 -3.122 0
-468.892 -3.1264 0
-467.261 -3.12514 0
-465.632 -3.13019 0
-464.002 -3.13395 0
-462.371 -3.14213 0
-460.741 -3.14232 0
-459.11 -3.14851 0
-457.483 -3.15232 0
-455.85 -3.15519 0
-454.221 -3.15937 0
-452.59 -3.16369 0
-450.965 -3.16972 0
-449.336 -3.17119 0
-447.707 -3.17738 0
-446.08 -3.18331 0
-444.449 -3.18429 0
-442.82 -3.18667 0
-441.196 -3.19374 0
-439.567 -3.20008 0
-437.936 -3.20317 0
-436.303 -3.20512 0
-434.676 -3.20917 0
-433.049 -3.21405 0
-431.419 -3.21438 0
-429.79 -3.22079 0
-428.162 -3.22224 0
-426.537 -3.22552 0
-424.905 -3.22855 0
-423.28 -3.23155 0
-421.652 -3.24103 0
-420.021 -3.24418 0
-418.391 -3.24846 0
-416.761 -3.2528 0
-415.134 -3.25914 0
-413.502 -3.26457 0
-411.879 -3.26666 0
-410.249 -3.27236 0
-408.621 -3.27874 0
-406.993 -3.28163 0
-405.364 -3.28469 0
-403.735 -3.28598 0
-402.108 -3.28827 0
-400.482 -3.28995 0
-398.853 -3.29003 0
-397.227 -3.29998 0
-395.601 -3.29714 0
-393.972 -3.29791 0
-392.344 -3.30291 0
-390.714 -3.30257 0
-389.087 -3.30527 0
-387.457 -3.31495 0
-385.828 -3.31686 0
-384.201 -3.31805 0
-382.572 -3.32037 0
-380.944 -3.32301 0
-379.316 -3.32607 0
-377.692 -3.33046 0
-376.063 -3.32925 0
-374.436 -3.32983 0
-372.805 -3.33364 0
-371.181 -3.3347 0
-369.552 -3.33366 0
-367.924 -3.33542 0
-366.295 -3.33275 0
-364.667 -3.32934 0
-363.035 -3.33006 0
-361.407 -3.33397 0
-359.78 -3.33503 0
-358.152 -3.33605 0
-356.521 -3.34003 0
-354.894 -3.33654 0
-353.27 -3.33395 0
-351.642 -3.33438 0
-350.012 -3.33689 0
-348.381 -3.33265 0
-346.753 -3.33322 0
-345.126 -3.33268 0
-343.496 -3.32953 0
-341.869 -3.331 0
-340.244 -3.32901 0
-338.617 -3.33098 0
-336.989 -3.32588 0
-335.36 -3.32439 0
-333.73 -3.32539 0
-332.104 -3.3253 0
-330.474 -3.32419 0
-328.845 -3.3235 0
-327.22 -3.32888 0
-325.592 -3.32819 0
-323.966 -3.32939 0
-322.336 -3.32759 0
-320.709 -3.31687 0
-319.082 -3.3144 0
-317.452 -3.31495 0
-315.825 -3.3084 0
-314.196 -3.31116 0
-312.569 -3.31197 0
-310.94 -3.31223 0
-309.312 -3.30606 0
-307.685 -3.3088 0
-306.055 -3.30684 0
-304.426 -3.30977 0
-302.797 -3.3006 0
-301.173 -3.29844 0
-299.542 -3.29927 0
-297.913 -3.30071 0
-296.284 -3.29554 0
-294.658 -3.29099 0
-293.027 -3.28735 0
-291.4 -3.28728 0
-289.769 -3.28467 0
-288.14 -3.28012 0
-286.517 -3.28469 0
-284.884 -3.28502 0
-283.257 -3.28087 0
-281.631 -3.2784 0
-280.001 -3.27957 0
-278.373 -3.27609 0
-276.745 -3.27755 0
-275.119 -3.27273 0
-273.491 -3.26905 0
-271.863 -3.2668 0
-270.235 -3.2682 0
-268.606 -3.26667 0
-266.978 -3.26616 0
-265.349 -3.27013 0
-263.721 -3.26545 0
-262.093 -3.26002 0
-260.465 -3.25656 0
-258.837 -3.25473 0
-257.211 -3.25267 0
-255.579 -3.25059 0
-253.954 -3.24782 0
-252.322 -3.24343 0
-250.692 -3.24486 0
-249.063 -3.23974 0
-247.433 -3.23658 0
-245.804 -3.23928 0
-244.178 -3.23742 0
-242.549 -3.2358 0
-240.921 -3.23579 0
-239.29 -3.2327 0
-237.664 -3.22713 0
-236.034 -3.22729 0
-234.405 -3.22747 0
-232.777 -3.22389 0
-231.148 -3.22401 0
-229.521 -3.22223 0
-227.888 -3.22174 0
-226.261 -3.22252 0
-224.632 -3.22647 0
-223.003 -3.22226 0
-221.376 -3.22071 0
-219.748 -3.21988 0
-218.122 -3.21875 0
-216.493 -3.21758 0
-214.868 -3.21486 0
-213.241 -3.21805 0
-211.611 -3.21842 0
-209.985 -3.21661 0
-208.353 -3.2157 0
-206.726 -3.21534 0
-205.101 -3.21037 0
-203.475 -3.21107 0
-201.846 -3.21268 0
-200.217 -3.2152 0
-198.588 -3.21561 0
-196.959 -3.21636 0
-195.331 -3.2136 0
-193.704 -3.21036 0
-192.078 -3.21333 0
-190.444 -3.21311 0
-188.816 -3.20953 0
-187.187 -3.20882 0
-185.563 -3.21043 0
-183.934 -3.21017 0
-182.304 -3.21369 0
-180.671 -3.20958 0
-179.039 -3.20939 0
-177.415 -3.20348 0
-175.79 -3.20696 0
-174.163 -3.20718 0
-172.536 -3.20386 0
-170.91 -3.20105 0
-169.28 -3.20187 0
-167.652 -3.1982 0
-166.023 -3.20231 0
-164.393 -3.2012 0
-162.762 -3.19846 0
-161.139 -3.20001 0
-159.515 -3.198 0
-157.884 -3.19646 0
-156.255 -3.20109 0
-154.624 -3.2 0
-152.996 -3.19888 0
-151.37 -3.19538 0
-149.741 -3.19945 0
-148.116 -3.20002 0
-146.492 -3.20234 0
-144.861 -3.20308 0
-143.232 -3.20164 0
-141.605 -3.20539 0
-139.981 -3.20393 0
-138.353 -3.206 0
-136.722 -3.20056 0
-135.094 -3.20867 0
-133.465 -3.21073 0
-131.839 -3.20519 0
-130.21 -3.20397 0
-128.579 -3.19946 0
-126.954 -3.20622 0
-125.326 -3.20568 0
-123.698 -3.20802 0
-122.069 -3.20867 0
-120.441 -3.20932 0
-118.811 -3.20518 0
-117.183 -3.20526 0
-115.555 -3.20547 0
-113.93 -3.20905 0
-112.305 -3.21059 0
-110.676 -3.20919 0
-109.05 -3.20933 0
-107.422 -3.20344 0
-105.789 -3.21241 0
-104.16 -3.21207 0
-102.53 -3.21581 0
-100.905 -3.21223 0
-99.2784 -3.21039 0
-97.6554 -3.21056 0
-96.0232 -3.21346 0
-94.3956 -3.20899 0
-92.7622 -3.20827 0
-91.1393 -3.20928 0
-89.5107 -3.21145 0
-87.8854 -3.21245 0
-86.2604 -3.21424 0
-84.6316 -3.2137 0
-83.0045 -3.2211 0
-81.3718 -3.21979 0
-79.7456 -3.21201 0
-78.1169 -3.21725 0
-76.4909 -3.21821 0
-74.8634 -3.21801 0
-73.2328 -3.2203 0
-71.6052 -3.21597 0
-69.9798 -3.2162 0
-68.3552 -3.2234 0
-66.7225 -3.22567 0
-65.0921 -3.22051 0
-63.4681 -3.22003 0
-61.8465 -3.21842 0
-60.2194 -3.22395 0
-58.5868 -3.22247 0
-56.9552 -3.22237 0
-55.3242 -3.21759 0
-53.7003 -3.21988 0
-52.0694 -3.22323 0
-50.4469 -3.22575 0
-48.8238 -3.2244 0
-47.1981 -3.22121 0
-45.5694 -3.22356 0
-43.9357 -3.22529 0
-42.308 -3.22451 0
-40.6832 -3.22175 0
-39.0526 -3.22343 0
-37.4262 -3.22355 0
-35.7975 -3.22366 0
-34.1715 -3.22717 0
-32.5443 -3.22275 0
-30.9173 -3.22186 0
-29.2897 -3.22171 0
-27.6607 -3.22377 0
-26.0313 -3.22458 0
-24.407 -3.22232 0
-22.78 -3.21898 0
-21.1578 -3.21936 0
-19.5295 -3.22206 0
-17.9049 -3.22307 0
-16.2756 -3.22874 0
-14.6484 -3.22436 0
-13.0274 -3.22555 0
-11.3988 -3.22328 0
-9.76665 -3.22381 0
-8.13879 -3.22341 0
-6.50614 -3.22167 0
-4.87807 -3.22033 0
-3.25346 -3.21649 0
-1.62689 -3.21697 0
0 -3.21604 0
-1099.23 110.397 0
-1099.11 99.6754 0
-1099.15 89.3226 0
-1099.14 79.2068 0
-1099.07 69.3516 0
-1098.91 59.811 0
-1098.67 50.6387 0
-1098.36 41.9147 0
-1097.98 33.6905 0
-1097.54 26.0034 0
-1097.05 18.8778 0
-1096.51 12.3224 0
-1095.94 6.34759 0
-1095.4 0.878747 0
-1094.92 -4.17109 0
-1094.49 -8.84797 0
-1094.07 -13.1871 0
-1093.6 -17.1735 0
-1093.09 -20.7775 0
-1092.55 -23.9993 0
-1091.98 -26.8206 0
-1091.4 -29.2579 0
-1090.81 -31.3151 0
-1090.2 -33.0154 0
-1089.59 -34.3757 0
-1088.96 -35.4239 0
-1088.31 -36.184 0
-1087.64 -36.6756 0
-1086.94 -36.9395 0
-1086.2 -36.9829 0
-1085.44 -36.8321 0
-1084.64 -36.5072 0
-1083.8 -36.023 0
-1082.92 -35.3942 0
-1082 -34.6406 0
-1081.05 -33.7731 0
-1080.05 -32.8039 0
-1079.02 -31.7487 0
-1077.94 -30.6183 0
-1076.83 -29.4203 0
-1075.68 -28.165 0
-1074.49 -26.8658 0
-1073.27 -25.5312 0
-1072.01 -24.1707 0
-1070.72 -22.7861 0
-1069.4 -21.388 0
-1068.05 -19.9841 0
-1066.66 -18.5751 0
-1065.25 -17.1737 0
-1063.81 -15.7789 0
-1062.35 -14.3984 0
-1060.86 -13.0361 0
-1059.34 -11.6953 0
-1057.8 -10.3788 0
-1056.24 -9.09099 0
-1054.67 -7.83165 0
-1053.07 -6.60763 0
-1051.46 -5.41599 0
-1049.82 -4.26766 0
-1048.18 -3.15424 0
-1046.51 -2.08013 0
-1044.84 -1.04664 0
-1043.15 -0.0585738 0
-1041.45 0.886568 0
-1039.74 1.78663 0
-1038.02 2.64174 0
-1036.29 3.45282 0
-1034.55 4.21856 0
-1032.8 4.93803 0
-1031.05 5.61044 0
-1029.29 6.23973 0
-1027.53 6.82076 0
-1025.76 7.35998 0
-1023.99 7.85353 0
-1022.21 8.30355 0
-1020.44 8.71136 0
-1018.66 9.07619 0
-1016.88 9.40121 0
-1015.1 9.68271 0
-1013.31 9.92634 0
-1011.53 10.1314 0
-1009.75 10.2954 0
-1007.97 10.4246 0
-1006.19 10.5171 0
-1004.41 10.5757 0
-1002.64 10.6008 0
-1000.87 10.5939 0
-999.098 10.5553 0
-997.333 10.488 0
-995.567 10.3923 0
-993.81 10.2669 0
-992.054 10.1215 0
-990.304 9.94751 0
-988.559 9.75126 0
-986.818 9.53267 0
-985.08 9.29378 0
-983.348 9.03763 0
-981.62 8.76084 0
-979.898 8.46885 0
-978.179 8.16275 0
-976.468 7.8401 0
-974.761 7.50692 0
-973.059 7.16238 0
-971.362 6.80751 0
-969.669 6.44326 0
-967.982 6.07128 0
-966.3 5.69272 0