<?xml version="1.0"?>
<VTKFile type="StructuredGrid"  version="0.1" byte_order="LittleEndian" compressor="vtkZLibDataCompressor">
  <StructuredGrid WholeExtent="0 700 0 30 0 0">
    <Piece Extent="0 700 0 30 0 0">
      <PointData Vectors="Velocity">
        <DataArray type="Float32" Name="Velocity" NumberOfComponents="3" format="ascii">
-1081.15 117.115 0
-1081.5 106.28 0
-1081.9 95.5552 0
-1082.34 85.0465 0
-1082.79 74.7961 0
-1083.27 64.852 0
-1083.82 55.2978 0
-1084.4 46.1945 0
-1084.99 37.5897 0
-1085.59 29.4979 0
-1086.17 21.9493 0
-1086.73 14.9538 0
-1087.26 8.54711 0
-1087.72 2.72007 0
-1087.99 -2.60029 0
-1088.23 -7.59234 0
-1088.45 -12.2673 0
-1088.7 -16.6217 0
-1088.97 -20.5843 0
-1089.21 -24.1606 0
-1089.41 -27.3443 0
-1089.59 -30.1431 0
-1089.74 -32.5647 0
-1089.85 -34.6272 0
-1089.91 -36.3464 0
-1089.92 -37.7516 0
-1089.86 -38.8554 0
-1089.74 -39.6943 0
-1089.54 -40.2819 0
-1089.28 -40.6405 0
-1088.95 -40.7904 0
-1088.54 -40.7506 0
-1088.07 -40.5368 0
-1087.53 -40.1597 0
-1086.92 -39.6442 0
-1086.25 -38.9941 0
-1085.51 -38.2311 0
-1084.71 -37.355 0
-1083.85 -36.3906 0
-1082.92 -35.3378 0
-1081.94 -34.214 0
-1080.9 -33.0277 0
-1079.81 -31.7888 0
-1078.67 -30.5084 0
-1077.47 -29.189 0
-1076.23 -27.837 0
-1074.94 -26.4712 0
-1073.61 -25.0849 0
-1072.24 -23.6957 0
-1070.84 -22.2962 0
-1069.39 -20.8985 0
-1067.91 -19.5077 0
-1066.39 -18.1261 0
-1064.84 -16.7613 0
-1063.27 -15.4132 0
-1061.66 -14.0871 0
-1060.03 -12.7863 0
-1058.38 -11.5098 0
-1056.7 -10.2707 0
-1055 -9.05829 0
-1053.28 -7.87772 0
-1051.54 -6.73732 0
-1049.78 -5.63589 0
-1048.01 -4.57102 0
-1046.23 -3.54999 0
-1044.42 -2.56342 0
-1042.61 -1.62304 0
-1040.79 -0.727113 0
-1038.96 0.124656 0
-1037.12 0.937218 0
-1035.27 1.69966 0
-1033.42 2.42406 0
-1031.56 3.1029 0
-1029.7 3.735 0
-1027.83 4.3259 0
-1025.96 4.87477 0
-1024.08 5.37704 0
-1022.21 5.83885 0
-1020.33 6.25772 0
-1018.45 6.63389 0
-1016.58 6.97049 0
-1014.71 7.2688 0
-1012.83 7.52579 0
-1010.96 7.74803 0
-1009.09 7.92952 0
-1007.23 8.07681 0
-1005.37 8.18511 0
-1003.51 8.26286 0
-1001.66 8.30753 0
-999.814 8.31745 0
-997.971 8.29544 0
-996.136 8.24048 0
-994.308 8.1598 0
-992.482 8.05291 0
-990.666 7.91935 0
-988.855 7.76056 0
-987.053 7.57726 0
-985.254 7.373 0
-983.465 7.14473 0
-981.683 6.89924 0
-979.907 6.63483 0
-978.139 6.35272 0
-976.381 6.05124 0
-974.626 5.7361 0
-972.883 5.40711 0
-971.145 5.0661 0
-969.414 4.71068 0
-967.694 4.34669 0
-965.977 3.97279 0
-964.272 3.59344 0
-962.569 3.2078 0
-960.877 2.81528 0
-959.191 2.41878 0
-957.512 2.01619 0
-955.839 1.61002 0
-954.172 1.2061 0
-952.511 0.802138 0
-950.857 0.396123 0
-949.208 -0.00575646 0
-947.567 -0.411262 0
-945.93 -0.80961 0
-944.298 -1.2053 0
-942.673 -1.59862 0
-941.054 -1.98785 0
-939.438 -2.36738 0
-937.827 -2.74007 0
-936.22 -3.10906 0
-934.615 -3.4648 0
-933.016 -3.81711 0
-931.422 -4.16048 0
-929.829 -4.49278 0
-928.24 -4.81691 0
-926.656 -5.12995 0
-925.075 -5.43687 0
-923.493 -5.73185 0
-921.913 -6.01637 0
-920.337 -6.2886 0
-918.762 -6.54826 0
-917.19 -6.79853 0
-915.619 -7.03726 0
-914.048 -7.26325 0
-912.479 -7.47671 0
-910.908 -7.67954 0
-909.34 -7.87083 0
-907.775 -8.05032 0
-906.209 -8.21653 0
-904.643 -8.37219 0
-903.075 -8.51656 0
-901.506 -8.64744 0
-899.939 -8.77062 0
-898.374 -8.87633 0
-896.806 -8.97237 0
-895.237 -9.06183 0
-893.669 -9.13995 0
-892.099 -9.20458 0
-890.53 -9.25802 0
-888.959 -9.30418 0
-887.386 -9.33705 0
-885.812 -9.36182 0
-884.235 -9.3752 0
-882.66 -9.38024 0
-881.081 -9.37958 0
-879.501 -9.36584 0
-877.921 -9.34398 0
-876.335 -9.31439 0
-874.75 -9.27788 0
-873.164 -9.23316 0
-871.578 -9.1845 0
-869.985 -9.12688 0
-868.393 -9.06557 0
-866.797 -8.9929 0
-865.201 -8.91732 0
-863.604 -8.83599 0
-862.004 -8.75154 0
-860.404 -8.6587 0
-858.798 -8.56003 0
-857.19 -8.45943 0
-855.584 -8.35659 0
-853.976 -8.24959 0
-852.364 -8.13912 0
-850.753 -8.02645 0
-849.137 -7.90887 0
-847.521 -7.7876 0
-845.902 -7.66711 0
-844.279 -7.54432 0
-842.656 -7.42145 0
-841.033 -7.29577 0
-839.408 -7.16795 0
-837.78 -7.04212 0
-836.151 -6.91535 0
-834.521 -6.78861 0
-832.889 -6.66047 0
-831.254 -6.53206 0
-829.621 -6.40625 0
-827.987 -6.27945 0
-826.349 -6.1536 0
-824.709 -6.02798 0
-823.069 -5.90585 0
-821.427 -5.78362 0
-819.787 -5.66468 0
-818.142 -5.54652 0
-816.496 -5.42526 0
-814.849 -5.3144 0
-813.202 -5.20115 0
-811.553 -5.09203 0
-809.907 -4.98558 0
-808.257 -4.88086 0
-806.61 -4.7796 0
-804.959 -4.68022 0
-803.308 -4.58382 0
-801.654 -4.49302 0
-800.001 -4.4012 0
-798.346 -4.31132 0
-796.691 -4.22847 0
-795.036 -4.14851 0
-793.381 -4.07288 0
-791.726 -3.99755 0
-790.073 -3.92814 0
-788.417 -3.8611 0
-786.76 -3.7971 0
-785.103 -3.73533 0
-783.448 -3.67699 0
-781.789 -3.62413 0
-780.135 -3.57589 0
-778.48 -3.52609 0
-776.823 -3.48256 0
-775.169 -3.44299 0
-773.513 -3.40485 0
-771.856 -3.36925 0
-770.197 -3.34021 0
-768.54 -3.3113 0
-766.885 -3.28966 0
-765.231 -3.26655 0
-763.578 -3.25238 0
-761.921 -3.23751 0
-760.267 -3.22528 0
-758.612 -3.21615 0
-756.959 -3.2101 0
-755.305 -3.20345 0
-753.653 -3.20295 0
-752 -3.20248 0
-750.347 -3.20918 0
-748.697 -3.21417 0
-747.044 -3.22256 0
-745.392 -3.23442 0
-743.743 -3.24717 0
-742.093 -3.26111 0
-740.444 -3.28032 0
-738.794 -3.30382 0
-737.147 -3.32607 0
-735.498 -3.35181 0
-733.849 -3.37355 0
-732.204 -3.39837 0
-730.559 -3.42612 0
-728.913 -3.45589 0
-727.271 -3.4876 0
-725.625 -3.51469 0
-723.981 -3.5504 0
-722.336 -3.58746 0
-720.69 -3.62184 0
-719.049 -3.65837 0
-717.407 -3.69346 0
-715.767 -3.73141 0
-714.127 -3.77031 0
-712.487 -3.81135 0
-710.845 -3.85246 0
-709.208 -3.89216 0
-707.567 -3.93069 0
-705.928 -3.9726 0
-704.29 -4.01336 0
-702.652 -4.05622 0
-701.016 -4.09742 0
-699.377 -4.13907 0
-697.742 -4.18167 0
-696.106 -4.22465 0
-694.47 -4.26507 0
-692.836 -4.30816 0
-691.202 -4.34702 0
-689.569 -4.3881 0
-687.932 -4.42783 0
-686.297 -4.4698 0
-684.664 -4.5076 0
-683.031 -4.54429 0
-681.4 -4.58073 0
-679.767 -4.62219 0
-678.133 -4.65803 0
-676.503 -4.69617 0
-674.869 -4.73444 0
-673.238 -4.77023 0
-671.61 -4.80321 0
-669.978 -4.83854 0
-668.349 -4.86963 0
-666.716 -4.90174 0
-665.085 -4.93531 0
-663.455 -4.96389 0
-661.827 -4.99026 0
-660.199 -5.01948 0
-658.571 -5.04539 0
-656.944 -5.07204 0
-655.313 -5.09577 0
-653.681 -5.12011 0
-652.051 -5.14501 0
-650.425 -5.16453 0
-648.796 -5.18667 0
-647.17 -5.20657 0
-645.542 -5.22666 0
-643.915 -5.2396 0
-642.288 -5.26007 0
-640.656 -5.2777 0
-639.027 -5.29089 0
-637.395 -5.30602 0
-635.769 -5.32118 0
-634.141 -5.32974 0
-632.515 -5.34048 0
-630.883 -5.35355 0
-629.251 -5.35857 0
-627.624 -5.36811 0
-625.995 -5.37449 0
-624.364 -5.37988 0
-622.738 -5.38672 0
-621.106 -5.39141 0
-619.476 -5.39604 0
-617.845 -5.39748 0
-616.215 -5.39901 0
-614.589 -5.40171 0
-612.958 -5.39644 0
-611.328 -5.3966 0
-609.698 -5.39774 0
-608.069 -5.39628 0
-606.436 -5.39219 0
-604.806 -5.38908 0
-603.175 -5.38453 0
-601.544 -5.37858 0
-599.909 -5.37409 0
-598.277 -5.36802 0
-596.646 -5.3601 0
-595.015 -5.34826 0
-593.382 -5.34211 0
-591.754 -5.33347 0
-590.122 -5.32594 0
-588.491 -5.31739 0
-586.862 -5.30971 0
-585.226 -5.29753 0
-583.594 -5.28639 0
-581.963 -5.28228 0
-580.326 -5.27028 0
-578.684 -5.25998 0
-577.058 -5.24961 0
-575.422 -5.23888 0
-573.788 -5.22262 0
-572.154 -5.21448 0
-570.517 -5.20327 0
-568.888 -5.18799 0
-567.257 -5.17572 0
-565.625 -5.16106 0
-563.988 -5.14699 0
-562.355 -5.13975 0
-560.718 -5.12524 0
-559.084 -5.11363 0
-557.449 -5.0965 0
-555.815 -5.08515 0
-554.181 -5.06967 0
-552.544 -5.05321 0
-550.907 -5.04421 0
-549.277 -5.0305 0
-547.641 -5.01998 0
-546.003 -5.0022 0
-544.368 -4.99561 0
-542.73 -4.98379 0
-541.096 -4.96818 0
-539.462 -4.95523 0
-537.829 -4.94267 0
-536.191 -4.92809 0
-534.555 -4.91587 0
-532.916 -4.9043 0
-531.279 -4.88813 0
-529.643 -4.88293 0
-528.005 -4.87371 0
-526.371 -4.86386 0
-524.734 -4.85436 0
-523.098 -4.84744 0
-521.458 -4.83802 0
-519.82 -4.82271 0
-518.186 -4.81177 0
-516.55 -4.80284 0
-514.913 -4.79693 0
-513.28 -4.78915 0
-511.644 -4.77227 0
-510.005 -4.77067 0
-508.366 -4.7645 0
-506.723 -4.75613 0
-505.087 -4.75012 0
-503.452 -4.73789 0
-501.816 -4.73575 0
-500.181 -4.7289 0
-498.541 -4.72733 0
-496.906 -4.72216 0
-495.268 -4.71608 0
-493.628 -4.70952 0
-491.991 -4.70433 0
-490.358 -4.70527 0
-488.714 -4.703 0
-487.08 -4.69656 0
-485.445 -4.69131 0
-483.805 -4.68851 0
-482.17 -4.68766 0
-480.535 -4.68795 0
-478.899 -4.68187 0
-477.26 -4.68251 0
-475.628 -4.68045 0
-473.989 -4.68065 0
-472.35 -4.68537 0
-470.714 -4.68497 0
-469.083 -4.67992 0
-467.44 -4.6762 0
-465.803 -4.681 0
-464.164 -4.67954 0
-462.529 -4.68202 0
-460.894 -4.68827 0
-459.259 -4.68815 0
-457.62 -4.6836 0
-455.986 -4.68199 0
-454.351 -4.68159 0
-452.711 -4.68249 0
-451.069 -4.68734 0
-449.433 -4.68878 0
-447.798 -4.69324 0
-446.167 -4.69894 0
-444.529 -4.70297 0
-442.9 -4.70848 0
-441.259 -4.70926 0
-439.625 -4.71457 0
-437.988 -4.71622 0
-436.352 -4.71546 0
-434.716 -4.71708 0
-433.083 -4.72424 0
-431.447 -4.72537 0
-429.809 -4.73758 0
-428.174 -4.73937 0
-426.538 -4.74409 0
-424.903 -4.74953 0
-423.269 -4.75444 0
-421.629 -4.75581 0
-419.996 -4.76239 0
-418.361 -4.76937 0
-416.725 -4.77423 0
-415.09 -4.78142 0
-413.453 -4.77912 0
-411.823 -4.78758 0
-410.191 -4.78695 0
-408.555 -4.7961 0
-406.916 -4.79832 0
-405.282 -4.80352 0
-403.642 -4.8077 0
-402.005 -4.81016 0
-400.371 -4.8162 0
-398.738 -4.82099 0
-397.102 -4.82771 0
-395.464 -4.82545 0
-393.835 -4.82539 0
-392.198 -4.83025 0
-390.566 -4.83297 0
-388.93 -4.84383 0
-387.297 -4.84686 0
-385.661 -4.84587 0
-384.031 -4.85663 0
-382.395 -4.85955 0
-380.762 -4.86678 0
-379.129 -4.87091 0
-377.499 -4.86582 0
-375.856 -4.87196 0
-374.223 -4.88068 0
-372.588 -4.87923 0
-370.953 -4.87691 0
-369.326 -4.88118 0
-367.683 -4.88101 0
-366.051 -4.89221 0
-364.417 -4.89259 0
-362.79 -4.89502 0
-361.155 -4.89653 0
-359.525 -4.89698 0
-357.887 -4.90216 0
-356.249 -4.90285 0
-354.615 -4.90623 0
-352.983 -4.90297 0
-351.349 -4.90704 0
-349.715 -4.91577 0
-348.081 -4.91338 0
-346.443 -4.91637 0
-344.809 -4.91599 0
-343.172 -4.91473 0
-341.544 -4.91459 0
-339.907 -4.91959 0
-338.274 -4.92229 0
-336.639 -4.92435 0
-335.006 -4.92161 0
-333.372 -4.93191 0
-331.744 -4.92663 0
-330.107 -4.92958 0
-328.473 -4.93342 0
-326.84 -4.93335 0
-325.204 -4.9358 0
-323.573 -4.93165 0
-321.935 -4.93207 0
-320.303 -4.9318 0
-318.668 -4.93526 0
-317.029 -4.9321 0
-315.394 -4.93758 0
-313.766 -4.93315 0
-312.126 -4.93373 0
-310.49 -4.93266 0
-308.862 -4.92449 0
-307.225 -4.93844 0
-305.593 -4.93401 0
-303.958 -4.93122 0
-302.322 -4.93222 0
-300.689 -4.92972 0
-299.05 -4.92743 0
-297.418 -4.92645 0
-295.78 -4.92555 0
-294.146 -4.92832 0
-292.511 -4.92791 0
-290.879 -4.92425 0
-289.244 -4.92736 0
-287.612 -4.93053 0
-285.98 -4.92635 0
-284.345 -4.92667 0
-282.712 -4.9228 0
-281.078 -4.92389 0
-279.442 -4.92115 0
-277.811 -4.92562 0
-276.179 -4.92376 0
-274.545 -4.91815 0
-272.907 -4.91768 0
-271.277 -4.91376 0
-269.641 -4.9145 0
-268.015 -4.91083 0
-266.377 -4.90983 0
-264.741 -4.90575 0
-263.105 -4.90286 0
-261.474 -4.9083 0
-259.843 -4.89822 0
-258.213 -4.8995 0
-256.575 -4.89256 0
-254.937 -4.89561 0
-253.298 -4.89237 0
-251.665 -4.89464 0
-250.029 -4.89132 0
-248.386 -4.89201 0
-246.757 -4.89161 0
-245.124 -4.89853 0
-243.485 -4.89163 0
-241.848 -4.88286 0
-240.211 -4.88263 0
-238.578 -4.88237 0
-236.947 -4.88562 0
-235.31 -4.88328 0
-233.68 -4.88894 0
-232.043 -4.88662 0
-230.409 -4.88388 0
-228.776 -4.87625 0
-227.14 -4.87838 0
-225.506 -4.87725 0
-223.873 -4.87476 0
-222.24 -4.87427 0
-220.605 -4.87101 0
-218.97 -4.87121 0
-217.338 -4.86861 0
-215.7 -4.86884 0
-214.065 -4.87043 0
-212.434 -4.86995 0
-210.801 -4.86677 0
-209.165 -4.86095 0
-207.528 -4.86063 0
-205.898 -4.86281 0
-204.26 -4.8577 0
-202.624 -4.86122 0
-200.992 -4.86261 0
-199.359 -4.86288 0
-197.725 -4.858 0
-196.086 -4.8564 0
-194.451 -4.85715 0
-192.814 -4.85417 0
-191.18 -4.85179 0
-189.551 -4.8494 0
-187.908 -4.85139 0
-186.275 -4.851 0
-184.636 -4.8482 0
-183.004 -4.85194 0
-181.368 -4.84957 0
-179.734 -4.84929 0
-178.099 -4.8439 0
-176.469 -4.84922 0
-174.836 -4.84599 0
-173.206 -4.84501 0
-171.574 -4.84128 0
-169.936 -4.84714 0
-168.305 -4.84493 0
-166.672 -4.846 0
-165.036 -4.84689 0
-163.401 -4.84427 0
-161.763 -4.84418 0
-160.13 -4.83537 0
-158.495 -4.83903 0
-156.865 -4.83666 0
-155.233 -4.83679 0
-153.596 -4.83346 0
-151.957 -4.84193 0
-150.322 -4.84279 0
-148.681 -4.84465 0
-147.048 -4.84142 0
-145.419 -4.83566 0
-143.789 -4.84218 0
-142.15 -4.83694 0
-140.518 -4.8381 0
-138.884 -4.83596 0
-137.247 -4.83794 0
-135.606 -4.84168 0
-133.971 -4.84287 0
-132.339 -4.85433 0
-130.708 -4.84543 0
-129.078 -4.84271 0
-127.441 -4.84132 0
-125.815 -4.84524 0
-124.178 -4.84894 0
-122.544 -4.84753 0
-120.906 -4.84002 0
-119.275 -4.84586 0
-117.64 -4.84254 0
-116.005 -4.84694 0
-114.369 -4.84317 0
-112.735 -4.84218 0
-111.103 -4.84093 0
-109.473 -4.84378 0
-107.833 -4.84358 0
-106.195 -4.84827 0
-104.56 -4.84968 0
-102.925 -4.84678 0
-101.292 -4.84682 0
-99.6588 -4.8505 0
-98.0259 -4.85116 0
-96.3997 -4.84902 0
-94.7641 -4.85421 0
-93.1304 -4.85412 0
-91.4991 -4.84929 0
-89.8568 -4.85273 0
-88.2251 -4.859 0
-86.5938 -4.85665 0
-84.9586 -4.85561 0
-83.3279 -4.85806 0
-81.6915 -4.85688 0
-80.0635 -4.85398 0
-78.4247 -4.8498 0
-76.7878 -4.85301 0
-75.1477 -4.85867 0
-73.5227 -4.85933 0
-71.8905 -4.85866 0
-70.2554 -4.85604 0
-68.6234 -4.85395 0
-66.9872 -4.85358 0
-65.3518 -4.84801 0
-63.7198 -4.85507 0
-62.0868 -4.85819 0
-60.4545 -4.86021 0
-58.8191 -4.86166 0
-57.186 -4.86322 0
-55.5539 -4.86051 0
-53.9162 -4.85912 0
-52.2809 -4.86376 0
-50.6523 -4.86642 0
-49.016 -4.86895 0
-47.3797 -4.86461 0
-45.7489 -4.86841 0
-44.1113 -4.86705 0
-42.4788 -4.86833 0
-40.8422 -4.86575 0
-39.2102 -4.85937 0
-37.576 -4.86037 0
-35.939 -4.86132 0
-34.3038 -4.86278 0
-32.671 -4.86311 0
-31.0377 -4.86803 0
-29.3995 -4.86881 0
-27.767 -4.86606 0
-26.1349 -4.86734 0
-24.5008 -4.86535 0
-22.8691 -4.86158 0
-21.2435 -4.86389 0
-19.606 -4.86704 0
-17.9733 -4.8646 0
-16.3399 -4.86143 0
-14.7056 -4.87008 0
-13.0694 -4.86434 0
-11.4326 -4.86464 0
-9.80302 -4.86753 0
-8.16588 -4.86528 0
-6.53281 -4.85983 0
-4.8997 -4.86243 0
-3.2677 -4.86175 0
-1.63385 -4.86216 0
0 -4.86452 0
-1091.99 117.505 0
-1092.23 106.613 0
-1092.48 95.8686 0
-1092.7 85.3388 0
-1092.9 75.0615 0
-1093.07 65.0816 0
-1093.19 55.4758 0
-1093.29 46.3291 0
-1093.37 37.6886 0
-1093.43 29.5679 0
-1093.44 22.0016 0
-1093.41 15.0088 0
-1093.32 8.60427 0
-1093.19 2.80076 0
-1093.13 -2.51152 0
-1093.09 -7.50847 0
-1093.03 -12.1927 0
-1092.93 -16.5481 0
-1092.78 -20.5206 0
-1092.62 -24.0905 0
-1092.45 -27.2762 0
-1092.26 -30.0571 0
-1092.04 -32.4655 0
-1091.8 -34.5036 0
-1091.52 -36.1896 0
-1091.21 -37.5527 0
-1090.87 -38.6137 0
-1090.48 -39.3996 0
-1090.04 -39.9332 0
-1089.56 -40.2378 0
-1089.02 -40.3254 0
-1088.43 -40.2281 0
-1087.79 -39.9545 0
-1087.1 -39.5203 0
-1086.35 -38.944 0
-1085.55 -38.2355 0
-1084.71 -37.4162 0
-1083.8 -36.4829 0
-1082.85 -35.4606 0
-1081.85 -34.355 0
-1080.8 -33.1799 0
-1079.7 -31.9444 0
-1078.57 -30.6564 0
-1077.38 -29.3271 0
-1076.15 -27.9621 0
-1074.89 -26.57 0
-1073.58 -25.1579 0
-1072.24 -23.7351 0
-1070.87 -22.307 0
-1069.45 -20.8725 0
-1068.01 -19.4388 0
-1066.54 -18.0168 0
-1065.03 -16.6065 0
-1063.5 -15.2128 0
-1061.95 -13.8362 0
-1060.36 -12.4866 0
-1058.76 -11.1586 0
-1057.13 -9.86398 0
-1055.48 -8.60097 0
-1053.82 -7.36828 0
-1052.13 -6.1713 0
-1050.43 -5.01592 0
-1048.72 -3.89748 0
-1046.98 -2.81986 0
-1045.24 -1.78087 0
-1043.48 -0.786634 0
-1041.71 0.165137 0
-1039.93 1.07077 0
-1038.14 1.93147 0
-1036.35 2.74862 0
-1034.55 3.5207 0
-1032.73 4.24839 0
-1030.92 4.93459 0
-1029.1 5.57153 0
-1027.27 6.16654 0
-1025.44 6.71513 0
-1023.61 7.21974 0
-1021.78 7.68249 0
-1019.94 8.10194 0
-1018.1 8.47789 0
-1016.27 8.81414 0
-1014.44 9.11014 0
-1012.6 9.36716 0
-1010.77 9.58527 0
-1008.94 9.76501 0
-1007.11 9.9078 0
-1005.28 10.015 0
-1003.46 10.0886 0
-1001.64 10.1267 0
-999.824 10.1314 0
-998.012 10.1042 0
-996.205 10.0463 0
-994.402 9.95954 0
-992.605 9.84603 0
-990.814 9.70526 0
-989.027 9.54342 0
-987.245 9.35276 0
-985.471 9.14039 0
-983.702 8.90791 0
-981.94 8.65394 0
-980.182 8.3839 0
-978.431 8.09445 0
-976.686 7.78523 0
-974.948 7.46421 0
-973.216 7.12889 0
-971.49 6.77954 0
-969.771 6.41953 0
-968.057 6.04746 0
-966.351 5.66854 0
-964.65 5.28202 0
-962.956 4.88984 0
-961.268 4.49095 0
-959.586 4.08381 0
-957.91 3.67875 0
-956.237 3.26842 0
-954.572 2.85721 0
-952.913 2.44811 0
-951.258 2.03656 0
-949.609 1.62657 0
-947.965 1.2182 0
-946.325 0.814871 0
-944.689 0.413544 0
-943.06 0.0146247 0
-941.433 -0.377103 0
-939.81 -0.761093 0
-938.193 -1.13836 0
-936.579 -1.51131 0
-934.967 -1.87253 0
-933.36 -2.2275 0
-931.755 -2.5723 0
-930.155 -2.90962 0
-928.556 -3.23588 0
-926.962 -3.55415 0
-925.369 -3.86124 0
-923.778 -4.15806 0
-922.188 -4.44339 0
-920.6 -4.71854 0
-919.015 -4.9804 0
-917.431 -5.23119 0
-915.847 -5.47152 0
-914.266 -5.69757 0
-912.685 -5.9132 0
-911.105 -6.11617 0
-909.526 -6.30854 0
-907.947 -6.48948 0
-906.368 -6.65584 0
-904.79 -6.81091 0
-903.211 -6.95488 0
-901.632 -7.08622 0
-900.055 -7.20811 0
-898.476 -7.31484 0
-896.898 -7.41025 0
-895.319 -7.50017 0
-893.739 -7.57552 0
-892.158 -7.64027 0
-890.579 -7.69344 0
-888.997 -7.73699 0
-887.414 -7.77009 0
-885.83 -7.79199 0
-884.245 -7.80388 0
-882.659 -7.8098 0
-881.072 -7.80602 0
-879.485 -7.79038 0
-877.893 -7.76769 0
-876.302 -7.73685 0
-874.71 -7.6983 0
-873.116 -7.65315 0
-871.52 -7.6018 0
-869.924 -7.54338 0
-868.323 -7.47992 0
-866.723 -7.40714 0
-865.124 -7.32901 0
-863.521 -7.24641 0
-861.916 -7.15804 0
-860.308 -7.06462 0
-858.7 -6.96596 0
-857.09 -6.86184 0
-855.479 -6.75832 0
-853.867 -6.64838 0
-852.253 -6.53734 0
-850.636 -6.4218 0
-849.02 -6.30324 0
-847.4 -6.18154 0
-845.778 -6.05835 0
-844.157 -5.93187 0
-842.533 -5.80925 0
-840.906 -5.68061 0
-839.281 -5.55424 0
-837.655 -5.4255 0
-836.026 -5.29654 0
-834.395 -5.1698 0
-832.763 -5.03925 0
-831.13 -4.90984 0
-829.496 -4.78194 0
-827.861 -4.6548 0
-826.224 -4.52698 0
-824.586 -4.40057 0
-822.949 -4.27678 0
-821.309 -4.15334 0
-819.668 -4.03365 0
-818.026 -3.91408 0
-816.382 -3.79353 0
-814.738 -3.67877 0
-813.093 -3.56732 0
-811.448 -3.45707 0
-809.801 -3.35001 0
-808.154 -3.24332 0
-806.508 -3.14146 0
-804.861 -3.04156 0
-803.213 -2.94516 0
-801.562 -2.85118 0
-799.912 -2.75906 0
-798.26 -2.6717 0
-796.611 -2.58728 0
-794.96 -2.50717 0
-793.308 -2.43182 0
-791.656 -2.35602 0
-790.005 -2.28535 0
-788.351 -2.21735 0
-786.698 -2.15403 0
-785.047 -2.09373 0
-783.394 -2.03304 0
-781.742 -1.98085 0
-780.087 -1.93178 0
-778.436 -1.8828 0
-776.783 -1.83964 0
-775.129 -1.79971 0
-773.475 -1.76365 0
-771.821 -1.72716 0
-770.169 -1.69592 0
-768.515 -1.66926 0
-766.865 -1.64608 0
-765.213 -1.6268 0
-763.561 -1.61042 0
-761.908 -1.59439 0
-760.257 -1.5825 0
-758.604 -1.57444 0
-756.954 -1.56779 0
-755.303 -1.56296 0
-753.654 -1.56078 0
-752.002 -1.56291 0
-750.354 -1.56883 0
-748.704 -1.5736 0
-747.055 -1.58548 0
-745.405 -1.59651 0
-743.758 -1.60868 0
-742.109 -1.62611 0
-740.461 -1.64545 0
-738.814 -1.66692 0
-737.169 -1.68981 0
-735.523 -1.71373 0
-733.876 -1.73821 0
-732.231 -1.76413 0
-730.588 -1.7916 0
-728.945 -1.82133 0
-727.3 -1.85266 0
-725.656 -1.88302 0
-724.013 -1.91738 0
-722.37 -1.95419 0
-720.728 -1.99153 0
-719.084 -2.02673 0
-717.444 -2.06431 0
-715.804 -2.10184 0
-714.164 -2.14232 0
-712.524 -2.18166 0
-710.885 -2.22306 0
-709.245 -2.26379 0
-707.607 -2.30441 0
-705.97 -2.34597 0
-704.329 -2.38708 0
-702.692 -2.43064 0
-701.057 -2.47227 0
-699.421 -2.51274 0
-697.785 -2.55678 0
-696.148 -2.59987 0
-694.514 -2.64245 0
-692.879 -2.68218 0
-691.243 -2.72512 0
-689.608 -2.76442 0
-687.972 -2.80641 0
-686.337 -2.84469 0
-684.701 -2.88298 0
-683.07 -2.92361 0
-681.435 -2.95998 0
-679.803 -2.99877 0
-678.17 -3.03742 0
-676.538 -3.07757 0
-674.906 -3.11295 0
-673.275 -3.15347 0
-671.643 -3.18427 0
-670.011 -3.21632 0
-668.378 -3.25085 0
-666.749 -3.28195 0
-665.119 -3.31344 0
-663.486 -3.34379 0
-661.855 -3.37161 0
-660.226 -3.40094 0
-658.596 -3.42504 0
-656.965 -3.45418 0
-655.334 -3.47795 0
-653.704 -3.49974 0
-652.077 -3.52564 0
-650.446 -3.54477 0
-648.818 -3.56719 0
-647.189 -3.59032 0
-645.558 -3.60735 0
-643.931 -3.62516 0
-642.302 -3.64063 0
-640.672 -3.65732 0
-639.043 -3.67123 0
-637.411 -3.68712 0
-635.781 -3.70174 0
-634.151 -3.71517 0
-632.521 -3.72209 0
-630.893 -3.731 0
-629.261 -3.73847 0
-627.63 -3.74889 0
-626.001 -3.75483 0
-624.37 -3.76399 0
-622.74 -3.76954 0
-621.108 -3.77269 0
-619.479 -3.7765 0
-617.849 -3.77774 0
-616.217 -3.78061 0
-614.587 -3.78187 0
-612.957 -3.77953 0
-611.328 -3.77806 0
-609.698 -3.77683 0
-608.065 -3.77473 0
-606.434 -3.77126 0
-604.802 -3.76764 0
-603.172 -3.76615 0
-601.539 -3.75746 0
-599.907 -3.75087 0
-598.273 -3.74555 0
-596.638 -3.73859 0
-595.008 -3.72988 0
-593.376 -3.72327 0
-591.744 -3.71291 0
-590.113 -3.70487 0
-588.48 -3.69984 0
-586.85 -3.68848 0
-585.218 -3.67617 0
-583.587 -3.66686 0
-581.952 -3.65878 0
-580.318 -3.64284 0
-578.682 -3.63475 0
-577.046 -3.62819 0
-575.41 -3.61555 0
-573.777 -3.60275 0
-572.144 -3.59058 0
-570.509 -3.5812 0
-568.876 -3.56368 0
-567.242 -3.55497 0
-565.608 -3.53675 0
-563.973 -3.52646 0
-562.342 -3.51466 0
-560.706 -3.50154 0
-559.07 -3.48777 0
-557.435 -3.47386 0
-555.803 -3.46179 0
-554.169 -3.44445 0
-552.533 -3.42866 0
-550.897 -3.41902 0
-549.26 -3.40533 0
-547.625 -3.39441 0
-545.99 -3.37884 0
-544.357 -3.36941 0
-542.721 -3.35665 0
-541.083 -3.34595 0
-539.446 -3.33052 0
-537.812 -3.31627 0
-536.175 -3.30155 0
-534.541 -3.29043 0
-532.904 -3.27746 0
-531.269 -3.2704 0
-529.632 -3.25818 0
-527.995 -3.2536 0
-526.362 -3.24118 0
-524.727 -3.22658 0
-523.089 -3.22166 0
-521.448 -3.20898 0
-519.813 -3.19892 0
-518.175 -3.1867 0
-516.539 -3.17898 0
-514.902 -3.16825 0
-513.266 -3.16321 0
-511.632 -3.15058 0
-509.997 -3.14316 0
-508.359 -3.13643 0
-506.719 -3.12982 0
-505.082 -3.12381 0
-503.445 -3.11242 0
-501.809 -3.11094 0
-500.173 -3.10551 0
-498.538 -3.10134 0
-496.901 -3.09448 0
-495.264 -3.08874 0
-493.627 -3.08347 0
-491.989 -3.0798 0
-490.352 -3.07772 0
-488.715 -3.07516 0
-487.076 -3.07106 0
-485.44 -3.06571 0
-483.805 -3.06319 0
-482.168 -3.06061 0
-480.534 -3.06082 0
-478.894 -3.05925 0
-477.259 -3.05442 0
-475.62 -3.05735 0
-473.987 -3.05514 0
-472.353 -3.05933 0
-470.717 -3.05745 0
-469.079 -3.05504 0
-467.441 -3.05301 0
-465.803 -3.05297 0
-464.167 -3.05622 0
-462.529 -3.05718 0
-460.891 -3.05869 0
-459.258 -3.06155 0
-457.622 -3.05882 0
-455.988 -3.05819 0
-454.349 -3.05794 0
-452.713 -3.05823 0
-451.076 -3.06159 0
-449.44 -3.06412 0
-447.804 -3.06829 0
-446.169 -3.0766 0
-444.534 -3.07984 0
-442.901 -3.08119 0
-441.265 -3.08324 0
-439.63 -3.08937 0
-437.996 -3.08981 0
-436.359 -3.09302 0
-434.723 -3.09505 0
-433.087 -3.09911 0
-431.452 -3.10028 0
-429.817 -3.11195 0
-428.178 -3.11616 0
-426.547 -3.11928 0
-424.909 -3.12729 0
-423.273 -3.13097 0
-421.64 -3.13238 0
-420.005 -3.14155 0
-418.37 -3.14374 0
-416.733 -3.14985 0
-415.095 -3.15215 0
-413.459 -3.15716 0
-411.825 -3.16341 0
-410.193 -3.1648 0
-408.56 -3.16849 0
-406.92 -3.17462 0
-405.286 -3.18 0
-403.647 -3.17974 0
-402.014 -3.18755 0
-400.38 -3.19084 0
-398.747 -3.19673 0
-397.111 -3.20121 0
-395.474 -3.20458 0
-393.838 -3.20336 0
-392.207 -3.20879 0
-390.571 -3.2129 0
-388.937 -3.21963 0
-387.302 -3.22726 0
-385.669 -3.22488 0
-384.037 -3.23222 0
-382.403 -3.23816 0
-380.768 -3.24303 0
-379.132 -3.24701 0
-377.497 -3.24528 0
-375.861 -3.24768 0
-374.222 -3.25452 0
-372.591 -3.2553 0
-370.959 -3.25787 0
-369.321 -3.25754 0
-367.689 -3.2601 0
-366.057 -3.26681 0
-364.424 -3.26837 0
-362.787 -3.27323 0
-361.158 -3.27692 0
-359.523 -3.27566 0
-357.886 -3.27662 0
-356.253 -3.28206 0
-354.617 -3.28247 0
-352.982 -3.28478 0
-351.35 -3.28619 0
-349.715 -3.29065 0
-348.079 -3.29255 0
-346.447 -3.29102 0
-344.81 -3.29331 0
-343.175 -3.29146 0
-341.542 -3.29322 0
-339.914 -3.29452 0
-338.277 -3.30002 0
-336.64 -3.29955 0
-335.008 -3.30054 0
-333.375 -3.30593 0
-331.743 -3.30787 0
-330.108 -3.30592 0
-328.472 -3.31316 0
-326.837 -3.30947 0
-325.204 -3.31196 0
-323.57 -3.30983 0
-321.935 -3.31129 0
-320.3 -3.3094 0
-318.664 -3.31054 0
-317.031 -3.30887 0
-315.399 -3.31398 0
-313.766 -3.30943 0
-312.132 -3.30874 0
-310.494 -3.30908 0
-308.86 -3.30545 0
-307.225 -3.31376 0
-305.592 -3.31122 0
-303.957 -3.30934 0
-302.323 -3.30867 0
-300.688 -3.30779 0
-299.054 -3.30038 0
-297.416 -3.30471 0
-295.781 -3.30125 0
-294.144 -3.30444 0
-292.512 -3.30621 0
-290.881 -3.30214 0
-289.249 -3.30693 0
-287.617 -3.30346 0
-285.978 -3.30366 0
-284.342 -3.30036 0
-282.707 -3.30021 0
-281.075 -3.29864 0
-279.446 -3.29979 0
-277.81 -3.30184 0
-276.174 -3.30022 0
-274.541 -3.29592 0
-272.908 -3.29259 0
-271.273 -3.29327 0
-269.641 -3.28779 0
-268.008 -3.28919 0
-266.37 -3.28692 0
-264.736 -3.27913 0
-263.107 -3.28361 0
-261.471 -3.28425 0
-259.833 -3.27765 0
-258.196 -3.27594 0
-256.565 -3.26918 0
-254.93 -3.26913 0
-253.295 -3.26933 0
-251.659 -3.27196 0
-250.026 -3.26621 0
-248.392 -3.26755 0
-246.756 -3.26984 0
-245.119 -3.27016 0
-243.481 -3.26444 0
-241.847 -3.25752 0
-240.215 -3.26061 0
-238.579 -3.25917 0
-236.946 -3.26068 0
-235.313 -3.26034 0
-233.681 -3.26194 0
-232.044 -3.25759 0
-230.409 -3.25918 0
-228.775 -3.25444 0
-227.144 -3.25167 0
-225.507 -3.25295 0
-223.875 -3.25294 0
-222.24 -3.25199 0
-220.605 -3.24683 0
-218.971 -3.2496 0
-217.335 -3.24355 0
-215.702 -3.2469 0
-214.068 -3.24569 0
-212.432 -3.24793 0
-210.8 -3.24352 0
-209.164 -3.24038 0
-207.531 -3.23712 0
-205.893 -3.24241 0
-204.259 -3.23731 0
-202.624 -3.23609 0
-200.992 -3.24117 0
-199.354 -3.23648 0
-197.72 -3.23233 0
-196.087 -3.2318 0
-194.452 -3.23338 0
-192.813 -3.22893 0
-191.179 -3.2293 0
-189.545 -3.2279 0
-187.909 -3.22387 0
-186.273 -3.22594 0
-184.637 -3.22391 0
-183.002 -3.22648 0
-181.366 -3.22561 0
-179.734 -3.22654 0
-178.103 -3.22405 0
-176.47 -3.22076 0
-174.837 -3.2267 0
-173.203 -3.22174 0
-171.57 -3.22159 0
-169.934 -3.22496 0
-168.303 -3.21911 0
-166.668 -3.22422 0
-165.034 -3.22468 0
-163.398 -3.21908 0
-161.763 -3.21796 0
-160.129 -3.2145 0
-158.496 -3.20975 0
-156.86 -3.21381 0
-155.225 -3.21307 0
-153.594 -3.21207 0
-151.961 -3.21624 0
-150.322 -3.21806 0
-148.685 -3.21956 0
-147.048 -3.21916 0
-145.419 -3.21901 0
-143.787 -3.21649 0
-142.154 -3.21558 0
-140.522 -3.21384 0
-138.887 -3.21292 0
-137.248 -3.21316 0
-135.614 -3.21526 0
-133.976 -3.223 0
-132.337 -3.22545 0
-130.705 -3.22501 0
-129.077 -3.22374 0
-127.445 -3.22002 0
-125.813 -3.2218 0
-124.177 -3.22491 0
-122.541 -3.22196 0
-120.911 -3.21899 0
-119.275 -3.2193 0
-117.638 -3.21825 0
-116.004 -3.22169 0
-114.37 -3.21908 0
-112.734 -3.21969 0
-111.104 -3.22049 0
-109.471 -3.22117 0
-107.836 -3.22164 0
-106.199 -3.22469 0
-104.561 -3.22527 0
-102.925 -3.22179 0
-101.297 -3.22445 0
-99.659 -3.2276 0
-98.0275 -3.22995 0
-96.3996 -3.23328 0
-94.7658 -3.23138 0
-93.1306 -3.23098 0
-91.4976 -3.23138 0
-89.8648 -3.23108 0
-88.2266 -3.23429 0
-86.5927 -3.23288 0
-84.9642 -3.23383 0
-83.3292 -3.23213 0
-81.6931 -3.23416 0
-80.0591 -3.2308 0
-78.4273 -3.23127 0
-76.7935 -3.22927 0
-75.1598 -3.23663 0
-73.5261 -3.23681 0
-71.8871 -3.2334 0
-70.2545 -3.23712 0
-68.6199 -3.23405 0
-66.9855 -3.22971 0
-65.3511 -3.22951 0
-63.7174 -3.23402 0
-62.083 -3.23446 0
-60.4514 -3.23789 0
-58.8173 -3.23867 0
-57.1831 -3.23958 0
-55.5502 -3.23961 0
-53.9168 -3.23648 0
-52.2841 -3.24226 0
-50.6479 -3.24675 0
-49.0149 -3.24329 0
-47.3815 -3.24373 0
-45.7471 -3.24626 0
-44.1109 -3.24374 0
-42.4753 -3.23998 0
-40.8416 -3.24099 0
-39.208 -3.23971 0
-37.5751 -3.23861 0
-35.9412 -3.24049 0
-34.3093 -3.23929 0
-32.6713 -3.24056 0
-31.0388 -3.24119 0
-29.4046 -3.24364 0
-27.7691 -3.24182 0
-26.1335 -3.24477 0
-24.5012 -3.24274 0
-22.8711 -3.24226 0
-21.2388 -3.24165 0
-19.6052 -3.24057 0
-17.9736 -3.23966 0
-16.3373 -3.24093 0
-14.7044 -3.2432 0
-13.0683 -3.24065 0
-11.4323 -3.24252 0
-9.80135 -3.24504 0
-8.16622 -3.2448 0
-6.53072 -3.23974 0
-4.89635 -3.24449 0
-3.26414 -3.24137 0
-1.6314 -3.2429 0
0 -3.24202 0
-1103.09 118.235 0
-1102.94 107.129 0
-1102.96 96.3802 0
-1102.94 85.8641 0
-1102.84 75.6122 0
-1102.67 65.6628 0
-1102.42 56.0748 0
-1102.09 46.9325 0
-1101.71 38.2828 0
-1101.27 30.1649 0
-1100.78 22.6075 0
-1100.23 15.6234 0
-1099.64 9.22385 0
-1099.08 3.3578 0
-1098.57 -2.061 0
-1098.11 -7.09543 0
-1097.68 -11.7757 0
-1097.22 -16.1035 0
-1096.72 -20.0624 0
-1096.18 -23.632 0
-1095.61 -26.8139 0
-1095.04 -29.5977 0
-1094.45 -31.9977 0
-1093.85 -34.0252 0
-1093.23 -35.7043 0
-1092.6 -37.0523 0
-1091.96 -38.0912 0
-1091.3 -38.8491 0
-1090.62 -39.3489 0
-1089.9 -39.6148 0
-1089.16 -39.6657 0
-1088.38 -39.5264 0
-1087.57 -39.2122 0
-1086.72 -38.7329 0
-1085.82 -38.1106 0
-1084.9 -37.3621 0
-1083.94 -36.4922 0
-1082.93 -35.5153 0
-1081.89 -34.4505 0
-1080.81 -33.3006 0
-1079.69 -32.0836 0
-1078.53 -30.806 0
-1077.34 -29.4793 0
-1076.12 -28.1083 0
-1074.86 -26.7056 0
-1073.57 -25.2782 0
-1072.24 -23.8322 0
-1070.89 -22.3757 0
-1069.5 -20.912 0
-1068.09 -19.4489 0
-1066.65 -17.9871 0
-1065.18 -16.5346 0
-1063.69 -15.0997 0
-1062.18 -13.6806 0
-1060.64 -12.2802 0
-1059.08 -10.9101 0
-1057.5 -9.55862 0
-1055.9 -8.24574 0
-1054.28 -6.96169 0
-1052.65 -5.71535 0
-1050.99 -4.50216 0
-1049.33 -3.33165 0
-1047.65 -2.19774 0
-1045.96 -1.10485 0
-1044.25 -0.0562168 0
-1042.53 0.948415 0
-1040.81 1.91127 0
-1039.07 2.8274 0
-1037.33 3.69568 0
-1035.57 4.518 0
-1033.81 5.29772 0
-1032.04 6.03106 0
-1030.27 6.7214 0
-1028.49 7.36534 0
-1026.71 7.96355 0
-1024.92 8.51513 0
-1023.13 9.02157 0
-1021.34 9.48528 0
-1019.55 9.9067 0
-1017.75 10.2833 0
-1015.96 10.6188 0
-1014.16 10.9157 0
-1012.36 11.1688 0
-1010.57 11.3874 0
-1008.77 11.5657 0
-1006.98 11.7048 0
-1005.19 11.8085 0
-1003.4 11.8799 0
-1001.61 11.9146 0
-999.828 11.9167 0
-998.047 11.8849 0
-996.268 11.8236 0
-994.493 11.7342 0
-992.722 11.6153 0
-990.955 11.4709 0
-989.193 11.3008 0
-987.435 11.1069 0
-985.682 10.8894 0
-983.934 10.6514 0
-982.19 10.3936 0
-980.452 10.1163 0
-978.719 9.8201 0
-976.989 9.50758 0
-975.265 9.17864 0
-973.546 8.83883 0
-971.832 8.48325 0