<?xml version="1.0"?>
<VTKFile type="StructuredGrid"  version="0.1" byte_order="LittleEndian" compressor="vtkZLibDataCompressor">
  <StructuredGrid WholeExtent="0 700 0 30 0 0">
    <Piece Extent="0 700 0 30 0 0">
      <PointData Vectors="Velocity">
        <DataArray type="Float32" Name="Velocity" NumberOfComponents="3" format="ascii">
-1043.63 81.7545 0
-1044.13 72.8216 0
-1044.68 64.0208 0
-1045.25 55.4342 0
-1045.85 47.1179 0
-1046.49 39.1513 0
-1047.17 31.6142 0
-1047.86 24.5538 0
-1048.54 17.994 0
-1049.19 11.956 0
-1049.81 6.45944 0
-1050.37 1.52574 0
-1050.84 -2.85137 0
-1051.13 -6.76753 0
-1051.37 -10.3937 0
-1051.56 -13.7906 0
-1051.84 -16.8567 0
-1052.08 -19.5419 0
-1052.29 -21.8508 0
-1052.47 -23.793 0
-1052.61 -25.3822 0
-1052.7 -26.6411 0
-1052.72 -27.5929 0
-1052.68 -28.2683 0
-1052.55 -28.6921 0
-1052.35 -28.8946 0
-1052.06 -28.8989 0
-1051.7 -28.7263 0
-1051.25 -28.3983 0
-1050.73 -27.9329 0
-1050.13 -27.3462 0
-1049.45 -26.6561 0
-1048.71 -25.8754 0
-1047.9 -25.018 0
-1047.02 -24.095 0
-1046.07 -23.1196 0
-1045.07 -22.0993 0
-1044.01 -21.0465 0
-1042.9 -19.9693 0
-1041.73 -18.8748 0
-1040.51 -17.7711 0
-1039.25 -16.664 0
-1037.94 -15.5604 0
-1036.59 -14.4657 0
-1035.2 -13.386 0
-1033.78 -12.3239 0
-1032.32 -11.2833 0
-1030.84 -10.2671 0
-1029.32 -9.28058 0
-1027.77 -8.32633 0
-1026.2 -7.40519 0
-1024.61 -6.51796 0
-1023 -5.66842 0
-1021.37 -4.85787 0
-1019.72 -4.08759 0
-1018.05 -3.35897 0
-1016.37 -2.67091 0
-1014.68 -2.02261 0
-1012.97 -1.41727 0
-1011.26 -0.854895 0
-1009.53 -0.333521 0
-1007.8 0.144863 0
-1006.07 0.583665 0
-1004.32 0.981728 0
-1002.58 1.33964 0
-1000.83 1.65798 0
-999.076 1.93875 0
-997.322 2.18038 0
-995.569 2.38721 0
-993.815 2.55791 0
-992.063 2.69519 0
-990.312 2.79765 0
-988.563 2.86927 0
-986.819 2.90954 0
-985.077 2.92044 0
-983.34 2.90529 0
-981.607 2.86282 0
-979.88 2.79477 0
-978.156 2.70347 0
-976.438 2.58989 0
-974.726 2.45315 0
-973.021 2.29891 0
-971.321 2.1257 0
-969.63 1.93583 0
-967.944 1.73107 0
-966.266 1.51293 0
-964.593 1.28111 0
-962.929 1.03885 0
-961.272 0.784813 0
-959.619 0.523226 0
-957.976 0.252274 0
-956.338 -0.0217223 0
-954.71 -0.301496 0
-953.086 -0.585855 0
-951.469 -0.872146 0
-949.86 -1.16365 0
-948.256 -1.45336 0
-946.659 -1.74189 0
-945.069 -2.03162 0
-943.482 -2.3178 0
-941.903 -2.60246 0
-940.328 -2.88078 0
-938.758 -3.15648 0
-937.194 -3.42804 0
-935.634 -3.69367 0
-934.077 -3.94984 0
-932.526 -4.20233 0
-930.977 -4.44508 0
-929.434 -4.68026 0
-927.894 -4.9087 0
-926.357 -5.12656 0
-924.823 -5.33502 0
-923.291 -5.53538 0
-921.762 -5.72425 0
-920.234 -5.90406 0
-918.706 -6.07601 0
-917.183 -6.23577 0
-915.66 -6.38559 0
-914.138 -6.52342 0
-912.618 -6.6519 0
-911.099 -6.76907 0
-909.578 -6.87778 0
-908.06 -6.97553 0
-906.542 -7.06465 0
-905.023 -7.14167 0
-903.504 -7.20793 0
-901.984 -7.2662 0
-900.464 -7.31593 0
-898.943 -7.35517 0
-897.421 -7.38558 0
-895.898 -7.40523 0
-894.371 -7.4174 0
-892.847 -7.4236 0
-891.321 -7.41962 0
-889.793 -7.41041 0
-888.264 -7.39408 0
-886.734 -7.37002 0
-885.202 -7.33876 0
-883.67 -7.30048 0
-882.135 -7.25838 0
-880.598 -7.21028 0
-879.058 -7.15779 0
-877.517 -7.09916 0
-875.976 -7.03581 0
-874.431 -6.96983 0
-872.884 -6.89751 0
-871.335 -6.82187 0
-869.786 -6.74499 0
-868.234 -6.66313 0
-866.68 -6.57972 0
-865.125 -6.49722 0
-863.566 -6.40881 0
-862.008 -6.3197 0
-860.446 -6.2303 0
-858.883 -6.14031 0
-857.32 -6.04913 0
-855.754 -5.95634 0
-854.186 -5.86418 0
-852.617 -5.77402 0
-851.046 -5.68194 0
-849.475 -5.59113 0
-847.901 -5.50016 0
-846.328 -5.41008 0
-844.753 -5.32542 0
-843.176 -5.23699 0
-841.597 -5.15251 0
-840.019 -5.06937 0
-838.439 -4.98671 0
-836.856 -4.90747 0
-835.273 -4.83081 0
-833.692 -4.75529 0
-832.107 -4.6827 0
-830.523 -4.61057 0
-828.939 -4.54188 0
-827.353 -4.47563 0
-825.766 -4.41666 0
-824.177 -4.35714 0
-822.59 -4.2984 0
-821.002 -4.24448 0
-819.413 -4.19314 0
-817.823 -4.14693 0
-816.237 -4.10369 0
-814.647 -4.06089 0
-813.059 -4.02206 0
-811.47 -3.98625 0
-809.881 -3.95303 0
-808.291 -3.92248 0
-806.703 -3.89608 0
-805.115 -3.86992 0
-803.524 -3.84881 0
-801.934 -3.82869 0
-800.343 -3.8114 0
-798.755 -3.79696 0
-797.166 -3.78689 0
-795.576 -3.77987 0
-793.991 -3.77178 0
-792.401 -3.7678 0
-790.813 -3.76644 0
-789.226 -3.76846 0
-787.639 -3.7708 0
-786.054 -3.77436 0
-784.468 -3.78021 0
-782.881 -3.78844 0
-781.299 -3.80104 0
-779.713 -3.81587 0
-778.13 -3.83021 0
-776.549 -3.84717 0
-774.967 -3.86305 0
-773.384 -3.88093 0
-771.801 -3.90234 0
-770.219 -3.92478 0
-768.639 -3.94612 0
-767.058 -3.96843 0
-765.48 -3.99476 0
-763.899 -4.02144 0
-762.321 -4.04934 0
-760.747 -4.07439 0
-759.167 -4.10017 0
-757.588 -4.12977 0
-756.012 -4.1573 0
-754.438 -4.18588 0
-752.86 -4.21503 0
-751.286 -4.24476 0
-749.709 -4.27365 0
-748.137 -4.30262 0
-746.562 -4.32944 0
-744.99 -4.3572 0
-743.417 -4.3889 0
-741.841 -4.41756 0
-740.268 -4.44976 0
-738.698 -4.47429 0
-737.129 -4.5027 0
-735.557 -4.52988 0
-733.987 -4.55711 0
-732.414 -4.58461 0
-730.844 -4.61127 0
-729.275 -4.63599 0
-727.705 -4.65957 0
-726.134 -4.68452 0
-724.565 -4.70766 0
-722.999 -4.7264 0
-721.431 -4.74582 0
-719.862 -4.7655 0
-718.29 -4.78707 0
-716.721 -4.80661 0
-715.15 -4.82191 0
-713.583 -4.84014 0
-712.017 -4.85518 0
-710.448 -4.87067 0
-708.88 -4.88711 0
-707.313 -4.90047 0
-705.747 -4.91659 0
-704.176 -4.92913 0
-702.611 -4.93965 0
-701.042 -4.95101 0
-699.476 -4.96346 0
-697.907 -4.9705 0
-696.34 -4.97884 0
-694.771 -4.98504 0
-693.205 -4.99184 0
-691.639 -4.99345 0
-690.069 -4.99904 0
-688.501 -5.00154 0
-686.933 -5.00432 0
-685.366 -5.0067 0
-683.797 -5.00755 0
-682.23 -5.00948 0
-680.662 -5.00855 0
-679.092 -5.00891 0
-677.522 -5.00956 0
-675.956 -5.00836 0
-674.389 -5.00156 0
-672.82 -5.00104 0
-671.25 -4.99507 0
-669.682 -4.98725 0
-668.113 -4.97994 0
-666.544 -4.97626 0
-664.97 -4.97061 0
-663.402 -4.96391 0
-661.832 -4.959 0
-660.261 -4.95268 0
-658.689 -4.94666 0
-657.114 -4.93842 0
-655.546 -4.93135 0
-653.978 -4.9199 0
-652.405 -4.9124 0
-650.832 -4.90238 0
-649.262 -4.89193 0
-647.693 -4.88326 0
-646.12 -4.87579 0
-644.551 -4.86422 0
-642.977 -4.85854 0
-641.405 -4.84943 0
-639.835 -4.84048 0
-638.265 -4.82994 0
-636.692 -4.82203 0
-635.119 -4.80947 0
-633.548 -4.80151 0
-631.976 -4.79029 0
-630.403 -4.78004 0
-628.83 -4.76728 0
-627.254 -4.75751 0
-625.683 -4.75075 0
-624.109 -4.74278 0
-622.539 -4.73427 0
-620.965 -4.72809 0
-619.392 -4.71619 0
-617.818 -4.70751 0
-616.245 -4.70246 0
-614.67 -4.69338 0
-613.097 -4.68396 0
-611.522 -4.67186 0
-609.95 -4.6656 0
-608.377 -4.65795 0
-606.804 -4.65051 0
-605.227 -4.64282 0
-603.655 -4.6336 0
-602.078 -4.62652 0
-600.506 -4.62 0
-598.932 -4.61617 0
-597.357 -4.60909 0
-595.782 -4.6054 0
-594.208 -4.60153 0
-592.632 -4.5955 0
-591.06 -4.59037 0
-589.488 -4.58816 0
-587.912 -4.58054 0
-586.336 -4.5794 0
-584.765 -4.57888 0
-583.188 -4.57124 0
-581.611 -4.56753 0
-580.038 -4.56484 0
-578.464 -4.56431 0
-576.89 -4.55957 0
-575.316 -4.55808 0
-573.745 -4.55697 0
-572.173 -4.55447 0
-570.602 -4.55367 0
-569.031 -4.55179 0
-567.455 -4.55068 0
-565.878 -4.55042 0
-564.304 -4.552 0
-562.725 -4.55544 0
-561.151 -4.55231 0
-559.576 -4.54999 0
-557.999 -4.54988 0
-556.427 -4.55176 0
-554.856 -4.55405 0
-553.282 -4.55517 0
-551.708 -4.55895 0
-550.134 -4.55878 0
-548.56 -4.56132 0
-546.989 -4.56417 0
-545.415 -4.5655 0
-543.843 -4.57065 0
-542.273 -4.56931 0
-540.695 -4.57528 0
-539.122 -4.56967 0
-537.548 -4.57677 0
-535.972 -4.57891 0
-534.399 -4.58197 0
-532.825 -4.58744 0
-531.256 -4.58578 0
-529.684 -4.59111 0
-528.111 -4.58998 0
-526.537 -4.59526 0
-524.966 -4.6004 0
-523.397 -4.60569 0
-521.823 -4.60798 0
-520.249 -4.60897 0
-518.676 -4.61316 0
-517.105 -4.61228 0
-515.529 -4.61982 0
-513.961 -4.62112 0
-512.388 -4.62769 0
-510.816 -4.63229 0
-509.244 -4.63569 0
-507.672 -4.63841 0
-506.102 -4.63976 0
-504.527 -4.64127 0
-502.954 -4.64253 0
-501.382 -4.64521 0
-499.807 -4.64596 0
-498.238 -4.65135 0
-496.665 -4.65161 0
-495.094 -4.65603 0
-493.52 -4.6591 0
-491.949 -4.65733 0
-490.375 -4.6634 0
-488.804 -4.66379 0
-487.233 -4.66396 0
-485.658 -4.66772 0
-484.083 -4.66935 0
-482.515 -4.67241 0
-480.946 -4.67164 0
-479.376 -4.67161 0
-477.801 -4.67358 0
-476.229 -4.6771 0
-474.657 -4.68012 0
-473.088 -4.68228 0
-471.513 -4.68082 0
-469.939 -4.68171 0
-468.365 -4.68611 0
-466.795 -4.69013 0
-465.226 -4.68508 0
-463.654 -4.6872 0
-462.081 -4.69249 0
-460.51 -4.69476 0
-458.941 -4.69151 0
-457.371 -4.69305 0
-455.795 -4.69116 0
-454.224 -4.69155 0
-452.656 -4.6929 0
-451.083 -4.69136 0
-449.507 -4.68894 0
-447.934 -4.69199 0
-446.36 -4.69261 0
-444.789 -4.6978 0
-443.22 -4.69363 0
-441.649 -4.69308 0
-440.077 -4.69154 0
-438.511 -4.6934 0
-436.935 -4.69133 0
-435.357 -4.69422 0
-433.79 -4.6922 0
-432.218 -4.69396 0
-430.65 -4.69519 0
-429.08 -4.69137 0
-427.504 -4.68847 0
-425.933 -4.68621 0
-424.357 -4.69231 0
-422.786 -4.68432 0
-421.212 -4.68401 0
-419.638 -4.68661 0
-418.061 -4.68934 0
-416.499 -4.68791 0
-414.926 -4.68646 0
-413.361 -4.68569 0
-411.787 -4.67969 0
-410.206 -4.67905 0
-408.633 -4.67895 0
-407.063 -4.67536 0
-405.493 -4.67188 0
-403.919 -4.67329 0
-402.351 -4.6729 0
-400.778 -4.67226 0
-399.208 -4.6692 0
-397.631 -4.67254 0
-396.059 -4.6722 0
-394.487 -4.66724 0
-392.919 -4.66462 0
-391.347 -4.66716 0
-389.771 -4.66564 0
-388.196 -4.6635 0
-386.626 -4.66414 0
-385.054 -4.66369 0
-383.482 -4.66462 0
-381.91 -4.65923 0
-380.338 -4.66178 0
-378.766 -4.6589 0
-377.194 -4.6616 0
-375.622 -4.6606 0
-374.047 -4.65904 0
-372.473 -4.65237 0
-370.902 -4.65088 0
-369.333 -4.65261 0
-367.761 -4.65361 0
-366.188 -4.64657 0
-364.619 -4.6476 0
-363.048 -4.64681 0
-361.478 -4.64542 0
-359.903 -4.64617 0
-358.332 -4.63764 0
-356.764 -4.63401 0
-355.183 -4.63369 0
-353.612 -4.63709 0
-352.034 -4.64055 0
-350.464 -4.63722 0
-348.891 -4.6376 0
-347.322 -4.63989 0
-345.751 -4.63436 0
-344.177 -4.63497 0
-342.602 -4.63542 0
-341.031 -4.64218 0
-339.456 -4.64343 0
-337.887 -4.64535 0
-336.317 -4.64473 0
-334.749 -4.63929 0
-333.176 -4.64095 0
-331.602 -4.63934 0
-330.028 -4.63845 0
-328.453 -4.63364 0
-326.887 -4.63639 0
-325.315 -4.6335 0
-323.741 -4.62654 0
-322.165 -4.63105 0
-320.592 -4.62952 0
-319.017 -4.63123 0
-317.447 -4.63002 0
-315.875 -4.63146 0
-314.299 -4.63373 0
-312.731 -4.63329 0
-311.159 -4.63269 0
-309.587 -4.63275 0
-308.017 -4.63122 0
-306.445 -4.63544 0
-304.871 -4.63303 0
-303.294 -4.63272 0
-301.725 -4.64041 0
-300.15 -4.63375 0
-298.58 -4.63892 0
-297.008 -4.63471 0
-295.433 -4.63696 0
-293.861 -4.63511 0
-292.293 -4.63909 0
-290.719 -4.64242 0
-289.147 -4.63872 0
-287.574 -4.63601 0
-286.003 -4.63665 0
-284.427 -4.63272 0
-282.86 -4.64028 0
-281.287 -4.63956 0
-279.718 -4.64197 0
-278.146 -4.64174 0
-276.578 -4.63929 0
-275.005 -4.64021 0
-273.435 -4.63772 0
-271.858 -4.63782 0
-270.287 -4.63682 0
-268.712 -4.64168 0
-267.143 -4.63484 0
-265.571 -4.64695 0
-263.998 -4.63873 0
-262.423 -4.64187 0
-260.849 -4.64008 0
-259.279 -4.63632 0
-257.703 -4.63997 0
-256.133 -4.63786 0
-254.561 -4.6397 0
-252.988 -4.64713 0
-251.418 -4.64285 0
-249.849 -4.64283 0
-248.278 -4.63882 0
-246.71 -4.63827 0
-245.138 -4.64682 0
-243.566 -4.64739 0
-241.992 -4.64735 0
-240.423 -4.64651 0
-238.855 -4.64354 0
-237.281 -4.64321 0
-235.711 -4.64692 0
-234.136 -4.64518 0
-232.564 -4.64201 0
-230.993 -4.63936 0
-229.423 -4.64954 0
-227.848 -4.64821 0
-226.274 -4.64796 0
-224.701 -4.6499 0
-223.132 -4.64757 0
-221.56 -4.64799 0
-219.988 -4.64618 0
-218.42 -4.6469 0
-216.847 -4.64481 0
-215.272 -4.65014 0
-213.705 -4.64603 0
-212.136 -4.64585 0
-210.562 -4.65021 0
-208.989 -4.64524 0
-207.418 -4.64432 0
-205.849 -4.64355 0
-204.275 -4.64881 0
-202.705 -4.65116 0
-201.129 -4.64878 0
-199.563 -4.64694 0
-197.987 -4.64935 0
-196.414 -4.64525 0
-194.838 -4.6463 0
-193.269 -4.65345 0
-191.696 -4.64925 0
-190.125 -4.64621 0
-188.556 -4.64926 0
-186.982 -4.6445 0
-185.414 -4.64375 0
-183.839 -4.64419 0
-182.269 -4.64752 0
-180.701 -4.64703 0
-179.131 -4.6454 0
-177.559 -4.64684 0
-175.989 -4.6462 0
-174.418 -4.6432 0
-172.842 -4.64713 0
-171.278 -4.64805 0
-169.706 -4.64352 0
-168.134 -4.64215 0
-166.56 -4.64593 0
-164.989 -4.64727 0
-163.416 -4.64394 0
-161.84 -4.64166 0
-160.265 -4.64768 0
-158.698 -4.6476 0
-157.126 -4.6461 0
-155.553 -4.6462 0
-153.982 -4.64602 0
-152.413 -4.65021 0
-150.84 -4.64433 0
-149.267 -4.65024 0
-147.697 -4.6495 0
-146.125 -4.6455 0
-144.553 -4.64403 0
-142.981 -4.6425 0
-141.41 -4.64293 0
-139.843 -4.64331 0
-138.269 -4.64339 0
-136.7 -4.64515 0
-135.127 -4.64848 0
-133.556 -4.64513 0
-131.985 -4.64433 0
-130.413 -4.64062 0
-128.843 -4.6419 0
-127.269 -4.64175 0
-125.703 -4.64774 0
-124.13 -4.6426 0
-122.562 -4.6433 0
-120.988 -4.64358 0
-119.417 -4.64839 0
-117.843 -4.64656 0
-116.273 -4.64411 0
-114.699 -4.64694 0
-113.126 -4.64306 0
-111.553 -4.64452 0
-109.982 -4.64339 0
-108.411 -4.64829 0
-106.842 -4.64243 0
-105.268 -4.64526 0
-103.696 -4.64997 0
-102.129 -4.64538 0
-100.555 -4.64695 0
-98.9815 -4.64396 0
-97.4119 -4.64095 0
-95.8429 -4.64382 0
-94.272 -4.64289 0
-92.6979 -4.64325 0
-91.1309 -4.64531 0
-89.5608 -4.64521 0
-87.9886 -4.64584 0
-86.4138 -4.64616 0
-84.8439 -4.64772 0
-83.2684 -4.65024 0
-81.6963 -4.64604 0
-80.1271 -4.64316 0
-78.5575 -4.64433 0
-76.9887 -4.64567 0
-75.419 -4.64321 0
-73.8484 -4.64118 0
-72.2731 -4.64235 0
-70.7031 -4.63587 0
-69.1343 -4.6419 0
-67.5599 -4.64697 0
-65.9876 -4.64313 0
-64.4179 -4.64689 0
-62.8481 -4.63732 0
-61.2726 -4.63846 0
-59.7045 -4.64105 0
-58.1357 -4.63581 0
-56.5655 -4.636 0
-54.997 -4.63258 0
-53.4254 -4.63328 0
-51.8535 -4.64111 0
-50.2787 -4.64189 0
-48.7116 -4.64193 0
-47.1379 -4.64175 0
-45.5653 -4.63999 0
-43.9962 -4.6386 0
-42.4235 -4.63582 0
-40.8497 -4.6292 0
-39.2798 -4.63598 0
-37.7056 -4.63876 0
-36.1303 -4.63738 0
-34.5637 -4.63699 0
-32.9919 -4.63561 0
-31.4224 -4.63796 0
-29.8542 -4.63892 0
-28.2796 -4.63581 0
-26.712 -4.63832 0
-25.1411 -4.63679 0
-23.568 -4.63335 0
-21.997 -4.63965 0
-20.4277 -4.63854 0
-18.8554 -4.64618 0
-17.2841 -4.63844 0
-15.7123 -4.64227 0
-14.1465 -4.64696 0
-12.5747 -4.63828 0
-11.001 -4.63845 0
-9.42887 -4.63552 0
-7.85967 -4.63909 0
-6.28677 -4.63867 0
-4.70881 -4.63646 0
-3.13843 -4.64091 0
-1.56822 -4.64121 0
0 -4.64728 0
-1052.56 82.286 0
-1052.95 73.2973 0
-1053.34 64.4604 0
-1053.7 55.8431 0
-1054.03 47.4834 0
-1054.3 39.4569 0
-1054.53 31.8544 0
-1054.72 24.736 0
-1054.87 18.1331 0
-1054.97 12.0665 0
-1055.01 6.55597 0
-1054.98 1.62111 0
-1054.91 -2.74498 0
-1054.88 -6.66161 0
-1054.89 -10.2958 0
-1054.87 -13.7002 0
-1054.76 -16.7767 0
-1054.63 -19.4658 0
-1054.48 -21.773 0
-1054.3 -23.7054 0
-1054.1 -25.2755 0
-1053.86 -26.5039 0
-1053.58 -27.4145 0
-1053.27 -28.0386 0
-1052.9 -28.4059 0
-1052.48 -28.5462 0
-1052 -28.4846 0
-1051.47 -28.2454 0
-1050.87 -27.8498 0
-1050.22 -27.3172 0
-1049.51 -26.6653 0
-1048.73 -25.9096 0
-1047.91 -25.0661 0
-1047.02 -24.1469 0
-1046.08 -23.1651 0
-1045.09 -22.1321 0
-1044.05 -21.0577 0
-1042.96 -19.9528 0
-1041.83 -18.8263 0
-1040.65 -17.6843 0
-1039.43 -16.5357 0
-1038.16 -15.3863 0
-1036.86 -14.2438 0
-1035.53 -13.1115 0
-1034.16 -11.997 0
-1032.75 -10.9019 0
-1031.32 -9.83128 0
-1029.86 -8.78756 0
-1028.37 -7.77446 0
-1026.86 -6.79585 0
-1025.32 -5.85221 0
-1023.77 -4.94576 0
-1022.19 -4.07694 0
-1020.6 -3.24948 0
-1018.99 -2.4637 0
-1017.36 -1.72061 0
-1015.72 -1.01986 0
-1014.07 -0.361132 0
-1012.41 0.253464 0
-1010.74 0.825791 0
-1009.05 1.3539 0
-1007.36 1.83952 0
-1005.67 2.28292 0
-1003.96 2.68493 0
-1002.25 3.04609 0
-1000.54 3.36667 0
-998.828 3.64957 0
-997.111 3.89275 0
-995.393 4.09931 0
-993.674 4.26959 0
-991.953 4.40544 0
-990.235 4.50683 0
-988.517 4.57562 0
-986.8 4.61327 0
-985.086 4.62065 0
-983.375 4.60073 0
-981.667 4.55483 0
-979.963 4.48193 0
-978.261 4.38606 0
-976.566 4.26748 0
-974.874 4.12646 0
-973.186 3.96582 0
-971.504 3.78595 0
-969.828 3.59065 0
-968.157 3.38096 0
-966.49 3.15602 0
-964.829 2.91742 0
-963.175 2.66859 0
-961.527 2.40914 0
-959.883 2.14103 0
-958.246 1.86553 0
-956.614 1.58322 0
-954.988 1.29735 0
-953.369 1.00839 0
-951.754 0.713967 0
-950.145 0.41805 0
-948.542 0.122799 0
-946.944 -0.17258 0
-945.351 -0.466696 0
-943.763 -0.757624 0
-942.181 -1.04798 0
-940.602 -1.33052 0
-939.028 -1.61078 0
-937.457 -1.88591 0
-935.891 -2.15442 0
-934.327 -2.41666 0
-932.769 -2.67157 0
-931.214 -2.91915 0
-929.663 -3.15764 0
-928.114 -3.3879 0
-926.567 -3.60986 0
-925.022 -3.82067 0
-923.482 -4.02237 0
-921.943 -4.21426 0
-920.406 -4.39492 0
-918.87 -4.56739 0
-917.336 -4.72889 0
-915.801 -4.87945 0
-914.269 -5.01967 0
-912.738 -5.14902 0
-911.208 -5.26734 0
-909.68 -5.37615 0
-908.15 -5.47492 0
-906.621 -5.56201 0
-905.093 -5.63903 0
-903.564 -5.70587 0
-902.034 -5.76433 0
-900.505 -5.81197 0
-898.976 -5.85174 0
-897.445 -5.88069 0
-895.914 -5.89935 0
-894.381 -5.91172 0
-892.848 -5.91557 0
-891.314 -5.91205 0
-889.778 -5.90135 0
-888.243 -5.883 0
-886.706 -5.85719 0
-885.168 -5.82498 0
-883.628 -5.7863 0
-882.088 -5.74146 0
-880.546 -5.69092 0
-879.002 -5.63643 0
-877.457 -5.57681 0
-875.91 -5.51316 0
-874.362 -5.44417 0
-872.813 -5.37139 0
-871.261 -5.29357 0
-869.707 -5.21441 0
-868.153 -5.13143 0
-866.598 -5.04668 0
-865.039 -4.96168 0
-863.479 -4.87061 0
-861.918 -4.78122 0
-860.355 -4.69162 0
-858.795 -4.59854 0
-857.229 -4.50569 0
-855.663 -4.41164 0
-854.096 -4.3174 0
-852.528 -4.22585 0
-850.958 -4.1329 0
-849.386 -4.04081 0
-847.814 -3.94931 0
-846.242 -3.85873 0
-844.667 -3.77083 0
-843.092 -3.68291 0
-841.516 -3.59646 0
-839.939 -3.51308 0
-838.36 -3.42953 0
-836.78 -3.34786 0
-835.2 -3.27004 0
-833.619 -3.19482 0
-832.037 -3.12096 0
-830.454 -3.04897 0
-828.871 -2.98069 0
-827.289 -2.91341 0
-825.706 -2.85204 0
-824.12 -2.79212 0
-822.536 -2.73531 0
-820.95 -2.68021 0
-819.365 -2.6302 0
-817.781 -2.5811 0
-816.194 -2.53854 0
-814.608 -2.49655 0
-813.023 -2.45741 0
-811.437 -2.42015 0
-809.85 -2.38869 0
-808.264 -2.35741 0
-806.677 -2.32964 0
-805.089 -2.30363 0
-803.502 -2.28321 0
-801.915 -2.26253 0
-800.33 -2.24752 0
-798.741 -2.23252 0
-797.155 -2.22161 0
-795.57 -2.21404 0
-793.983 -2.20693 0
-792.4 -2.20361 0
-790.813 -2.20257 0
-789.227 -2.20507 0
-787.643 -2.20702 0
-786.059 -2.21196 0
-784.476 -2.21754 0
-782.894 -2.22822 0
-781.31 -2.24034 0
-779.729 -2.25451 0
-778.146 -2.27108 0
-776.563 -2.28714 0
-774.983 -2.30416 0
-773.404 -2.32177 0
-771.822 -2.34231 0
-770.241 -2.3672 0
-768.662 -2.38983 0
-767.082 -2.41287 0
-765.504 -2.43708 0
-763.926 -2.46486 0
-762.348 -2.49376 0
-760.769 -2.51808 0
-759.193 -2.54479 0
-757.616 -2.57528 0
-756.04 -2.60353 0
-754.464 -2.63087 0
-752.89 -2.66125 0
-751.314 -2.69091 0
-749.739 -2.72014 0
-748.163 -2.75078 0
-746.589 -2.77729 0
-745.017 -2.8082 0
-743.445 -2.83685 0
-741.869 -2.86857 0
-740.297 -2.89885 0
-738.726 -2.92565 0
-737.155 -2.95263 0
-735.584 -2.98257 0
-734.011 -3.00855 0
-732.44 -3.03692 0
-730.87 -3.06389 0
-729.3 -3.08728 0
-727.73 -3.11241 0
-726.159 -3.13692 0
-724.589 -3.15891 0
-723.019 -3.18165 0
-721.45 -3.20001 0
-719.88 -3.21985 0
-718.311 -3.23946 0
-716.739 -3.25919 0
-715.169 -3.27647 0
-713.6 -3.2941 0
-712.032 -3.3086 0
-710.463 -3.32527 0
-708.896 -3.3412 0
-707.328 -3.35622 0
-705.759 -3.37056 0
-704.192 -3.38226 0
-702.622 -3.39484 0
-701.054 -3.40494 0
-699.486 -3.41506 0
-697.916 -3.42524 0
-696.347 -3.43292 0
-694.778 -3.4392 0
-693.208 -3.44466 0
-691.641 -3.44684 0
-690.071 -3.45298 0
-688.504 -3.45672 0
-686.935 -3.45783 0
-685.365 -3.46055 0
-683.798 -3.46175 0
-682.229 -3.46291 0
-680.661 -3.46154 0
-679.093 -3.46018 0
-677.523 -3.46144 0
-675.953 -3.45946 0
-674.385 -3.45622 0
-672.815 -3.45148 0
-671.244 -3.44678 0
-669.674 -3.4419 0
-668.107 -3.43404 0
-666.534 -3.42818 0
-664.965 -3.42313 0
-663.396 -3.4166 0
-661.827 -3.41017 0
-660.254 -3.40515 0
-658.681 -3.39773 0
-657.11 -3.38885 0
-655.539 -3.38145 0
-653.969 -3.37062 0
-652.397 -3.36232 0
-650.826 -3.35318 0
-649.254 -3.34359 0
-647.682 -3.33519 0
-646.111 -3.32705 0
-644.54 -3.31781 0
-642.971 -3.31005 0
-641.399 -3.30036 0
-639.827 -3.29325 0
-638.255 -3.27926 0
-636.684 -3.27166 0
-635.112 -3.25862 0
-633.537 -3.25096 0
-631.964 -3.24085 0
-630.39 -3.22748 0
-628.818 -3.2168 0
-627.247 -3.20586 0
-625.675 -3.19829 0
-624.103 -3.19229 0
-622.529 -3.18366 0
-620.956 -3.17401 0
-619.384 -3.16596 0
-617.809 -3.15757 0
-616.236 -3.15127 0
-614.663 -3.14123 0
-613.088 -3.13342 0
-611.516 -3.12276 0
-609.941 -3.11388 0
-608.369 -3.10531 0
-606.793 -3.09866 0
-605.219 -3.09131 0
-603.645 -3.08346 0
-602.073 -3.07365 0
-600.498 -3.06892 0
-598.925 -3.06647 0
-597.352 -3.0585 0
-595.779 -3.0546 0
-594.206 -3.04994 0
-592.63 -3.04241 0
-591.056 -3.04041 0
-589.483 -3.03601 0
-587.91 -3.02937 0
-586.336 -3.02755 0
-584.758 -3.02529 0
-583.184 -3.01908 0
-581.609 -3.01793 0
-580.036 -3.01446 0
-578.463 -3.01218 0
-576.89 -3.00954 0
-575.318 -3.00538 0
-573.744 -3.00505 0
-572.172 -3.00623 0
-570.6 -3.0035 0
-569.025 -3.0006 0
-567.453 -2.99653 0
-565.878 -2.99789 0
-564.301 -2.99879 0
-562.727 -3.0003 0
-561.152 -3.00146 0
-559.576 -2.99768 0
-558.004 -3.00169 0
-556.431 -3.00025 0
-554.859 -3.00415 0
-553.284 -3.00309 0
-551.711 -3.00387 0
-550.137 -3.00724 0
-548.565 -3.01212 0
-546.99 -3.01275 0
-545.418 -3.01619 0
-543.842 -3.01706 0
-542.27 -3.01831 0
-540.698 -3.02289 0
-539.124 -3.02266 0
-537.553 -3.02422 0
-535.979 -3.02934 0
-534.406 -3.03213 0
-532.832 -3.03725 0
-531.257 -3.03727 0
-529.688 -3.04158 0
-528.118 -3.04152 0
-526.545 -3.04484 0
-524.974 -3.04744 0
-523.399 -3.05336 0
-521.825 -3.05557 0
-520.252 -3.06028 0
-518.681 -3.05965 0
-517.107 -3.06395 0
-515.536 -3.07013 0
-513.964 -3.07361 0
-512.391 -3.07675 0
-510.819 -3.08116 0
-509.247 -3.08483 0
-507.674 -3.08706 0
-506.103 -3.09035 0
-504.53 -3.09273 0
-502.957 -3.08957 0
-501.384 -3.09253 0
-499.812 -3.09576 0
-498.241 -3.10002 0
-496.667 -3.1022 0
-495.095 -3.10699 0
-493.522 -3.10738 0
-491.951 -3.10932 0
-490.378 -3.11434 0
-488.804 -3.11427 0
-487.233 -3.1159 0
-485.661 -3.11817 0
-484.087 -3.11945 0
-482.516 -3.12379 0
-480.948 -3.12456 0
-479.378 -3.12479 0
-477.807 -3.12467 0
-476.233 -3.12659 0
-474.66 -3.1289 0
-473.087 -3.13107 0
-471.514 -3.12995 0
-469.94 -3.13182 0
-468.37 -3.13572 0
-466.798 -3.13844 0
-465.227 -3.13637 0
-463.656 -3.13869 0
-462.084 -3.13994 0
-460.511 -3.14262 0
-458.939 -3.14114 0
-457.367 -3.14146 0
-455.797 -3.14327 0
-454.223 -3.14114 0
-452.652 -3.14315 0
-451.081 -3.14271 0
-449.509 -3.14075 0
-447.937 -3.14147 0
-446.363 -3.14435 0
-444.79 -3.1463 0
-443.22 -3.14402 0
-441.647 -3.14228 0
-440.075 -3.14287 0
-438.506 -3.14229 0
-436.933 -3.13965 0
-435.358 -3.14243 0
-433.791 -3.14489 0
-432.218 -3.14619 0
-430.646 -3.14597 0
-429.073 -3.14091 0
-427.504 -3.13705 0
-425.931 -3.13994 0
-424.355 -3.13901 0
-422.784 -3.13739 0
-421.214 -3.13379 0
-419.641 -3.13547 0
-418.068 -3.13895 0
-416.495 -3.13942 0
-414.926 -3.13821 0
-413.353 -3.13442 0
-411.781 -3.13007 0
-410.208 -3.12766 0
-408.638 -3.12504 0
-407.063 -3.12564 0
-405.493 -3.12557 0
-403.921 -3.12433 0
-402.349 -3.12193 0
-400.774 -3.12097 0
-399.205 -3.12024 0
-397.632 -3.11881 0
-396.059 -3.12086 0
-394.485 -3.11964 0
-392.916 -3.11517 0
-391.34 -3.11605 0
-389.768 -3.11542 0
-388.196 -3.1144 0
-386.624 -3.11343 0
-385.053 -3.11256 0
-383.482 -3.11477 0
-381.912 -3.11169 0
-380.339 -3.11113 0
-378.767 -3.10863 0
-377.194 -3.11211 0
-375.621 -3.11031 0
-374.047 -3.10641 0
-372.476 -3.10228 0
-370.903 -3.10309 0
-369.331 -3.10346 0
-367.759 -3.10525 0
-366.189 -3.09644 0
-364.62 -3.09775 0
-363.045 -3.09764 0
-361.473 -3.09439 0
-359.901 -3.09456 0
-358.326 -3.08932 0
-356.754 -3.08499 0
-355.184 -3.08343 0
-353.609 -3.0868 0
-352.036 -3.08855 0
-350.46 -3.08891 0
-348.89 -3.09148 0
-347.32 -3.09142 0
-345.747 -3.08481 0
-344.178 -3.08571 0
-342.605 -3.08785 0
-341.033 -3.0894 0
-339.459 -3.09429 0
-337.887 -3.09591 0
-336.315 -3.09459 0
-334.743 -3.09094 0
-333.173 -3.08915 0
-331.6 -3.08696 0
-330.03 -3.08826 0
-328.458 -3.08548 0
-326.885 -3.08642 0
-325.312 -3.08154 0
-323.737 -3.08091 0
-322.162 -3.07934 0
-320.593 -3.08227 0
-319.02 -3.08039 0
-317.447 -3.08025 0
-315.876 -3.0823 0
-314.304 -3.08191 0
-312.726 -3.08434 0
-311.157 -3.08343 0
-309.584 -3.0853 0
-308.013 -3.08072 0
-306.439 -3.0836 0
-304.868 -3.07984 0
-303.298 -3.08494 0
-301.724 -3.08664 0
-300.152 -3.08543 0
-298.579 -3.08477 0
-297.005 -3.08362 0
-295.433 -3.08745 0
-293.864 -3.0887 0
-292.289 -3.08742 0
-290.72 -3.08789 0
-289.148 -3.08819 0
-287.574 -3.08545 0
-285.999 -3.0852 0
-284.431 -3.08712 0
-282.86 -3.09023 0
-281.287 -3.09319 0
-279.715 -3.09203 0
-278.144 -3.09397 0
-276.576 -3.09063 0
-275.006 -3.08723 0
-273.436 -3.08439 0
-271.863 -3.08712 0
-270.288 -3.08656 0
-268.715 -3.0885 0
-267.143 -3.08586 0
-265.572 -3.09229 0
-263.996 -3.08996 0
-262.427 -3.08659 0
-260.85 -3.09035 0
-259.278 -3.08948 0
-257.709 -3.0893 0
-256.136 -3.0906 0
-254.566 -3.09269 0
-252.995 -3.0957 0
-251.424 -3.09509 0
-249.852 -3.09099 0
-248.28 -3.09159 0
-246.711 -3.08892 0
-245.138 -3.09368 0
-243.563 -3.09283 0
-241.993 -3.09823 0
-240.424 -3.09542 0
-238.85 -3.09741 0
-237.281 -3.09259 0
-235.709 -3.09928 0
-234.137 -3.09624 0
-232.565 -3.09128 0
-230.992 -3.09224 0
-229.419 -3.09399 0
-227.847 -3.09631 0
-226.273 -3.09713 0
-224.702 -3.09863 0
-223.136 -3.09928 0
-221.565 -3.09878 0
-219.99 -3.09552 0
-218.416 -3.09682 0
-216.843 -3.09728 0
-215.275 -3.09938 0
-213.705 -3.09866 0
-212.132 -3.10053 0
-210.562 -3.09596 0
-208.992 -3.09722 0
-207.418 -3.09651 0
-205.849 -3.09601 0
-204.278 -3.09792 0
-202.706 -3.0993 0
-201.132 -3.10105 0
-199.562 -3.09948 0
-197.989 -3.09671 0
-196.418 -3.09711 0
-194.844 -3.09851 0
-193.274 -3.10099 0
-191.699 -3.10051 0
-190.126 -3.09752 0
-188.556 -3.09785 0
-186.985 -3.09916 0
-185.413 -3.09477 0
-183.844 -3.09525 0
-182.27 -3.09967 0
-180.701 -3.09923 0
-179.129 -3.09741 0
-177.558 -3.09713 0
-175.987 -3.09538 0
-174.417 -3.09614 0
-172.846 -3.09812 0
-171.272 -3.09889 0
-169.705 -3.0962 0
-168.131 -3.09712 0
-166.559 -3.09505 0
-164.985 -3.09645 0
-163.413 -3.09551 0
-161.841 -3.09135 0
-160.271 -3.09853 0
-158.699 -3.09954 0
-157.128 -3.09791 0
-155.556 -3.09695 0
-153.986 -3.09996 0
-152.414 -3.09922 0
-150.842 -3.09513 0
-149.27 -3.10091 0
-147.697 -3.09899 0
-146.125 -3.09759 0
-144.553 -3.09619 0
-142.982 -3.09388 0
-141.411 -3.09421 0
-139.842 -3.09608 0
-138.271 -3.09539 0
-136.699 -3.09728 0
-135.127 -3.09785 0
-133.555 -3.0945 0
-131.981 -3.09506 0
-130.41 -3.09373 0
-128.839 -3.09159 0
-127.27 -3.09249 0
-125.697 -3.09574 0
-124.126 -3.09385 0
-122.558 -3.09458 0
-120.987 -3.09328 0
-119.416 -3.0935 0
-117.845 -3.09553 0
-116.274 -3.09721 0
-114.702 -3.09642 0
-113.129 -3.09473 0
-111.555 -3.09603 0
-109.985 -3.09505 0
-108.413 -3.10041 0
-106.842 -3.0954 0
-105.272 -3.09444 0
-103.697 -3.09589 0
-102.125 -3.09473 0
-100.555 -3.09623 0
-98.9826 -3.09285 0
-97.4107 -3.09218 0
-95.841 -3.0947 0
-94.2698 -3.09146 0
-92.7001 -3.0954 0
-91.1291 -3.09421 0
-89.5604 -3.09258 0
-87.9862 -3.09722 0
-86.413 -3.10013 0
-84.8419 -3.09911 0
-83.2726 -3.09993 0
-81.7026 -3.10029 0
-80.1291 -3.09559 0
-78.5587 -3.09721 0
-76.9883 -3.0988 0
-75.4183 -3.0968 0
-73.845 -3.09223 0
-72.2742 -3.09339 0
-70.7031 -3.08779 0
-69.131 -3.09263 0
-67.558 -3.09506 0
-65.9898 -3.09681 0
-64.4161 -3.09598 0
-62.8433 -3.09019 0
-61.2722 -3.08666 0
-59.7042 -3.09085 0
-58.1304 -3.09019 0
-56.5617 -3.08734 0
-54.9925 -3.08596 0
-53.4239 -3.08992 0
-51.8518 -3.0896 0
-50.2817 -3.09134 0
-48.712 -3.09097 0
-47.1385 -3.09271 0
-45.5674 -3.08783 0
-43.9929 -3.08954 0
-42.4199 -3.08679 0
-40.8505 -3.08641 0
-39.2796 -3.08249 0
-37.7063 -3.08483 0
-36.136 -3.0866 0
-34.5616 -3.08434 0
-32.9955 -3.08821 0
-31.4254 -3.09403 0
-29.8525 -3.08728 0
-28.2814 -3.0873 0
-26.7085 -3.08552 0
-25.1351 -3.08688 0
-23.5669 -3.08854 0
-21.9968 -3.08584 0
-20.426 -3.0901 0
-18.8558 -3.09087 0
-17.2804 -3.09068 0
-15.7126 -3.09221 0
-14.1418 -3.09221 0
-12.5684 -3.0915 0
-10.9988 -3.0891 0
-9.42935 -3.08924 0
-7.85663 -3.09046 0
-6.28338 -3.0896 0
-4.70949 -3.0882 0
-3.13713 -3.09041 0
-1.56914 -3.09311 0
0 -3.09995 0
-1061.74 83.1905 0
-1061.73 73.9534 0
-1061.89 65.1012 0
-1062 56.4908 0
-1062.02 48.1526 0
-1061.94 40.1421 0
-1061.77 32.5354 0
-1061.52 25.3995 0
-1061.2 18.7798 0
-1060.81 12.7051 0
-1060.36 7.19359 0
-1059.86 2.24313 0
-1059.38 -2.19589 0
-1058.96 -6.23165 0
-1058.58 -9.92401 0
-1058.22 -13.2926 0
-1057.8 -16.3347 0
-1057.32 -19.0218 0
-1056.8 -21.3305 0
-1056.26 -23.2632 0
-1055.71 -24.8313 0
-1055.14 -26.0511 0
-1054.56 -26.947 0
-1053.96 -27.5494 0
-1053.34 -27.8877 0
-1052.69 -27.992 0
-1052.01 -27.8902 0
-1051.3 -27.6057 0
-1050.55 -27.1628 0
-1049.76 -26.5812 0
-1048.93 -25.8797 0
-1048.06 -25.0742 0
-1047.14 -24.1808 0
-1046.19 -23.2131 0
-1045.19 -22.1835 0
-1044.15 -21.1035 0
-1043.07 -19.9844 0
-1041.95 -18.8359 0
-1040.79 -17.6673 0
-1039.59 -16.4856 0
-1038.36 -15.2986 0
-1037.1 -14.1134 0
-1035.8 -12.9369 0
-1034.48 -11.7726 0
-1033.12 -10.6259 0
-1031.74 -9.50272 0
-1030.33 -8.40418 0
-1028.89 -7.33566 0
-1027.43 -6.29992 0
-1025.95 -5.29856 0
-1024.45 -4.33484 0
-1022.93 -3.40844 0
-1021.39 -2.52322 0
-1019.84 -1.67988 0
-1018.26 -0.87934 0
-1016.68 -0.122739 0
-1015.08 0.590261 0
-1013.47 1.25974 0
-1011.84 1.88504 0
-1010.21 2.46561 0
-1008.57 3.00195 0
-1006.92 3.49434 0
-1005.26 3.94322 0
-1003.6 4.35014 0
-1001.93 4.71552 0
-1000.25 5.03992 0
-998.576 5.32434 0
-996.895 5.57024 0
-995.212 5.77802 0
-993.526 5.94893 0
-991.839 6.0839 0
-990.151 6.18535 0
-988.463 6.25305 0
-986.777 6.28919 0
-985.091 6.29489 0
-983.405 6.27225 0
-981.723 6.22286 0
-980.041 6.14708 0
-978.363 6.04794 0
-976.688 5.92452 0
-975.015 5.78049 0
-973.347 5.61576 0
-971.681 5.43151 0
-970.02 5.23127 0
-968.362 5.01713 0
-966.709 4.78698 0
-965.061 4.54458 0
-963.417 4.28907 0
-961.777 4.02455 0
-960.142 3.75257 0
-958.511 3.47116 0
-956.885 3.18415 0
-955.263 2.89376 0
-953.646 2.59803 0
-952.035 2.29937 0
-950.427 2.00001 0
-948.824 1.69961 0
-947.225 1.39908 0
-945.631 1.10069 0
-944.04 0.804607 0
-942.454 0.511494 0
-940.871 0.223412 0
-939.293 -0.0597357 0