<?xml version="1.0"?>
<VTKFile type="StructuredGrid"  version="0.1" byte_order="LittleEndian" compressor="vtkZLibDataCompressor">
  <StructuredGrid WholeExtent="0 700 0 30 0 0">
    <Piece Extent="0 700 0 30 0 0">
      <PointData Vectors="Velocity">
        <DataArray type="Float32" Name="Velocity" NumberOfComponents="3" format="ascii">
-1035.45 77.8057 0
-1035.98 69.1224 0
-1036.55 60.5709 0
-1037.15 52.2354 0
-1037.77 44.1715 0
-1038.44 36.4667 0
-1039.14 29.1943 0
-1039.84 22.4007 0
-1040.54 16.1097 0
-1041.2 10.3389 0
-1041.82 5.10568 0
-1042.37 0.430941 0
-1042.83 -3.69582 0
-1043.12 -7.37929 0
-1043.32 -10.8046 0
-1043.55 -13.995 0
-1043.81 -16.8448 0
-1044.05 -19.318 0
-1044.25 -21.4213 0
-1044.42 -23.1663 0
-1044.55 -24.568 0
-1044.61 -25.6515 0
-1044.61 -26.4419 0
-1044.54 -26.9699 0
-1044.39 -27.261 0
-1044.16 -27.3431 0
-1043.84 -27.2413 0
-1043.44 -26.975 0
-1042.97 -26.5668 0
-1042.41 -26.0334 0
-1041.78 -25.391 0
-1041.07 -24.6549 0
-1040.3 -23.8405 0
-1039.45 -22.9579 0
-1038.55 -22.0216 0
-1037.58 -21.0402 0
-1036.55 -20.0253 0
-1035.46 -18.9843 0
-1034.32 -17.928 0
-1033.13 -16.8627 0
-1031.89 -15.7933 0
-1030.61 -14.7289 0
-1029.29 -13.6723 0
-1027.93 -12.631 0
-1026.53 -11.6078 0
-1025.09 -10.6077 0
-1023.62 -9.63321 0
-1022.13 -8.68847 0
-1020.61 -7.77481 0
-1019.06 -6.89505 0
-1017.49 -6.05186 0
-1015.89 -5.24467 0
-1014.28 -4.47803 0
-1012.65 -3.75054 0
-1011.01 -3.06491 0
-1009.35 -2.41835 0
-1007.67 -1.81392 0
-1005.99 -1.25037 0
-1004.29 -0.730223 0
-1002.59 -0.250454 0
-1000.88 0.18763 0
-999.167 0.586498 0
-997.446 0.946019 0
-995.72 1.26468 0
-993.993 1.54609 0
-992.263 1.79007 0
-990.532 1.99606 0
-988.802 2.1693 0
-987.071 2.30748 0
-985.342 2.4134 0
-983.615 2.48747 0
-981.891 2.52982 0
-980.169 2.54617 0
-978.45 2.53276 0
-976.736 2.49372 0
-975.027 2.42922 0
-973.322 2.34249 0
-971.623 2.23346 0
-969.931 2.10315 0
-968.243 1.95505 0
-966.562 1.78909 0
-964.888 1.60562 0
-963.22 1.40782 0
-961.559 1.19806 0
-959.904 0.975034 0
-958.255 0.742404 0
-956.614 0.498931 0
-954.981 0.246655 0
-953.353 -0.00868978 0
-951.733 -0.272735 0
-950.118 -0.540962 0
-948.512 -0.812378 0
-946.912 -1.08554 0
-945.316 -1.3608 0
-943.728 -1.63496 0
-942.147 -1.91077 0
-940.571 -2.18443 0
-939 -2.4561 0
-937.435 -2.72223 0
-935.875 -2.98486 0
-934.319 -3.24454 0
-932.769 -3.49797 0
-931.224 -3.74319 0
-929.682 -3.98285 0
-928.144 -4.2154 0
-926.61 -4.44115 0
-925.08 -4.65761 0
-923.553 -4.86717 0
-922.028 -5.06477 0
-920.506 -5.2561 0
-918.987 -5.43658 0
-917.469 -5.60669 0
-915.954 -5.7689 0
-914.441 -5.91926 0
-912.928 -6.05924 0
-911.416 -6.19069 0
-909.906 -6.3145 0
-908.398 -6.42406 0
-906.889 -6.52567 0
-905.38 -6.61519 0
-903.873 -6.69716 0
-902.361 -6.76908 0
-900.852 -6.83016 0
-899.343 -6.88285 0
-897.834 -6.92627 0
-896.323 -6.95892 0
-894.811 -6.98717 0
-893.299 -7.00469 0
-891.786 -7.0148 0
-890.271 -7.01508 0
-888.755 -7.01027 0
-887.238 -6.99649 0
-885.72 -6.97736 0
-884.2 -6.95006 0
-882.677 -6.91761 0
-881.153 -6.87739 0
-879.629 -6.83499 0
-878.101 -6.78618 0
-876.572 -6.73134 0
-875.043 -6.67347 0
-873.512 -6.61173 0
-871.978 -6.54249 0
-870.441 -6.47286 0
-868.903 -6.39962 0
-867.364 -6.32255 0
-865.823 -6.24725 0
-864.28 -6.16715 0
-862.734 -6.0856 0
-861.187 -6.00569 0
-859.639 -5.91957 0
-858.088 -5.83546 0
-856.536 -5.74902 0
-854.982 -5.66191 0
-853.427 -5.57642 0
-851.87 -5.48868 0
-850.313 -5.40239 0
-848.753 -5.316 0
-847.191 -5.2313 0
-845.63 -5.14933 0
-844.067 -5.06626 0
-842.502 -4.98773 0
-840.937 -4.90725 0
-839.371 -4.83226 0
-837.804 -4.75761 0
-836.236 -4.68095 0
-834.666 -4.60971 0
-833.094 -4.54304 0
-831.523 -4.47531 0
-829.951 -4.41155 0
-828.378 -4.35036 0
-826.806 -4.28981 0
-825.234 -4.23274 0
-823.661 -4.17993 0
-822.086 -4.12797 0
-820.512 -4.08112 0
-818.939 -4.03472 0
-817.361 -3.99248 0
-815.786 -3.95445 0
-814.21 -3.91635 0
-812.634 -3.88541 0
-811.058 -3.85364 0
-809.483 -3.82746 0
-807.906 -3.79993 0
-806.331 -3.77419 0
-804.757 -3.75696 0
-803.18 -3.73806 0
-801.607 -3.72538 0
-800.03 -3.71272 0
-798.457 -3.70093 0
-796.883 -3.69489 0
-795.308 -3.68878 0
-793.732 -3.6887 0
-792.159 -3.687 0
-790.583 -3.68939 0
-789.012 -3.69206 0
-787.439 -3.70079 0
-785.868 -3.70749 0
-784.297 -3.7176 0
-782.726 -3.72797 0
-781.154 -3.74468 0
-779.583 -3.75821 0
-778.012 -3.77272 0
-776.444 -3.79153 0
-774.874 -3.81159 0
-773.305 -3.83081 0
-771.736 -3.85199 0
-770.172 -3.87298 0
-768.607 -3.89865 0
-767.039 -3.92315 0
-765.474 -3.94852 0
-763.908 -3.97317 0
-762.343 -3.99995 0
-760.779 -4.02821 0
-759.217 -4.05451 0
-757.654 -4.0799 0
-756.09 -4.10731 0
-754.527 -4.13631 0
-752.967 -4.16308 0
-751.408 -4.19108 0
-749.846 -4.21915 0
-748.285 -4.24926 0
-746.725 -4.27604 0
-745.164 -4.30491 0
-743.606 -4.33075 0
-742.045 -4.36281 0
-740.488 -4.38725 0
-738.927 -4.41479 0
-737.368 -4.43965 0
-735.811 -4.46332 0
-734.253 -4.48752 0
-732.696 -4.51552 0
-731.14 -4.53728 0
-729.583 -4.55755 0
-728.025 -4.58103 0
-726.468 -4.6045 0
-724.915 -4.62489 0
-723.356 -4.64493 0
-721.803 -4.66391 0
-720.244 -4.67934 0
-718.691 -4.69749 0
-717.135 -4.7154 0
-715.58 -4.73224 0
-714.027 -4.74605 0
-712.469 -4.7615 0
-710.913 -4.77543 0
-709.358 -4.78718 0
-707.803 -4.79715 0
-706.248 -4.80549 0
-704.695 -4.81343 0
-703.139 -4.82723 0
-701.584 -4.83382 0
-700.028 -4.84366 0
-698.473 -4.85045 0
-696.919 -4.85367 0
-695.362 -4.85538 0
-693.808 -4.86027 0
-692.252 -4.86223 0
-690.695 -4.86408 0
-689.14 -4.86435 0
-687.585 -4.86899 0
-686.031 -4.86755 0
-684.474 -4.86735 0
-682.919 -4.86478 0
-681.361 -4.86418 0
-679.806 -4.86477 0
-678.25 -4.85981 0
-676.693 -4.85638 0
-675.135 -4.85062 0
-673.581 -4.84601 0
-672.024 -4.84003 0
-670.469 -4.83568 0
-668.908 -4.83034 0
-667.351 -4.82241 0
-665.795 -4.81628 0
-664.239 -4.80785 0
-662.679 -4.8011 0
-661.121 -4.79173 0
-659.565 -4.78469 0
-658.004 -4.78302 0
-656.449 -4.77302 0
-654.887 -4.76329 0
-653.329 -4.75723 0
-651.771 -4.74727 0
-650.213 -4.73898 0
-648.654 -4.72958 0
-647.093 -4.71869 0
-645.533 -4.70983 0
-643.975 -4.70601 0
-642.418 -4.69749 0
-640.861 -4.68526 0
-639.302 -4.67518 0
-637.742 -4.66759 0
-636.18 -4.65829 0
-634.617 -4.64744 0
-633.055 -4.63947 0
-631.501 -4.63218 0
-629.937 -4.624 0
-628.376 -4.61614 0
-626.818 -4.60746 0
-625.259 -4.60275 0
-623.699 -4.59281 0
-622.136 -4.58467 0
-620.575 -4.58002 0
-619.015 -4.57444 0
-617.453 -4.56768 0
-615.893 -4.55828 0
-614.333 -4.5503 0
-612.768 -4.54794 0
-611.206 -4.54349 0
-609.647 -4.53777 0
-608.083 -4.52727 0
-606.525 -4.52514 0
-604.965 -4.51933 0
-603.401 -4.51464 0
-601.84 -4.51235 0
-600.279 -4.50774 0
-598.717 -4.50575 0
-597.154 -4.50161 0
-595.595 -4.50049 0
-594.034 -4.49464 0
-592.474 -4.49054 0
-590.911 -4.49065 0
-589.353 -4.48571 0
-587.794 -4.48595 0
-586.232 -4.48318 0
-584.667 -4.47998 0
-583.106 -4.47762 0
-581.543 -4.47955 0
-579.981 -4.47556 0
-578.422 -4.48044 0
-576.859 -4.47796 0
-575.296 -4.48229 0
-573.74 -4.47991 0
-572.178 -4.48066 0
-570.617 -4.4826 0
-569.06 -4.48479 0
-567.496 -4.48072 0
-565.935 -4.48507 0
-564.375 -4.48543 0
-562.812 -4.48932 0
-561.255 -4.48766 0
-559.693 -4.49354 0
-558.134 -4.49214 0
-556.572 -4.49712 0
-555.011 -4.49647 0
-553.455 -4.49663 0
-551.893 -4.50218 0
-550.326 -4.50331 0
-548.771 -4.5063 0
-547.211 -4.50953 0
-545.65 -4.51283 0
-544.091 -4.51527 0
-542.529 -4.51874 0
-540.968 -4.51929 0
-539.409 -4.52428 0
-537.848 -4.5327 0
-536.285 -4.53301 0
-534.724 -4.53449 0
-533.164 -4.53666 0
-531.605 -4.5395 0
-530.046 -4.54687 0
-528.486 -4.55076 0
-526.926 -4.55286 0
-525.369 -4.55255 0
-523.809 -4.55365 0
-522.253 -4.56077 0
-520.692 -4.5603 0
-519.13 -4.56405 0
-517.571 -4.57093 0
-516.012 -4.57397 0
-514.451 -4.5733 0
-512.89 -4.57651 0
-511.33 -4.58346 0
-509.773 -4.59118 0
-508.216 -4.59177 0
-506.658 -4.59084 0
-505.099 -4.59185 0
-503.538 -4.59502 0
-501.976 -4.5974 0
-500.418 -4.60236 0
-498.856 -4.60145 0
-497.297 -4.60498 0
-495.741 -4.60587 0
-494.179 -4.60569 0
-492.618 -4.60975 0
-491.06 -4.61933 0
-489.503 -4.6155 0
-487.946 -4.61755 0
-486.387 -4.62088 0
-484.831 -4.62251 0
-483.267 -4.6246 0
-481.707 -4.61907 0
-480.146 -4.62151 0
-478.587 -4.62588 0
-477.029 -4.62783 0
-475.469 -4.62829 0
-473.909 -4.63177 0
-472.354 -4.632 0
-470.792 -4.63454 0
-469.237 -4.64024 0
-467.678 -4.63318 0
-466.116 -4.63439 0
-464.557 -4.638 0
-462.995 -4.6343 0
-461.438 -4.64094 0
-459.878 -4.64037 0
-458.32 -4.64113 0
-456.764 -4.64036 0
-455.206 -4.64159 0
-453.648 -4.64108 0
-452.091 -4.63733 0
-450.531 -4.63654 0
-448.97 -4.63783 0
-447.412 -4.63417 0
-445.855 -4.63641 0
-444.299 -4.63931 0
-442.741 -4.63316 0
-441.177 -4.63308 0
-439.617 -4.62788 0
-438.059 -4.63017 0
-436.502 -4.63083 0
-434.94 -4.63452 0
-433.382 -4.63443 0
-431.824 -4.63377 0
-430.266 -4.63204 0
-428.707 -4.63545 0
-427.147 -4.62879 0
-425.587 -4.63002 0
-424.031 -4.62604 0
-422.476 -4.63197 0
-420.915 -4.62635 0
-419.354 -4.62209 0
-417.794 -4.62372 0
-416.233 -4.62392 0
-414.677 -4.61987 0
-413.112 -4.6177 0
-411.553 -4.61441 0
-409.993 -4.6136 0
-408.435 -4.61241 0
-406.876 -4.61589 0
-405.318 -4.61182 0
-403.758 -4.61433 0
-402.196 -4.61243 0
-400.637 -4.61416 0
-399.078 -4.61266 0
-397.518 -4.6119 0
-395.96 -4.60991 0
-394.401 -4.60915 0
-392.84 -4.60734 0
-391.283 -4.60699 0
-389.723 -4.60585 0
-388.163 -4.6052 0
-386.602 -4.60529 0
-385.045 -4.60482 0
-383.487 -4.5957 0
-381.924 -4.59457 0
-380.366 -4.6008 0
-378.804 -4.59826 0
-377.243 -4.59949 0
-375.682 -4.59597 0
-374.118 -4.59641 0
-372.562 -4.60007 0
-371.008 -4.59554 0
-369.444 -4.59298 0
-367.885 -4.6008 0
-366.326 -4.58698 0
-364.768 -4.59033 0
-363.212 -4.58729 0
-361.653 -4.58443 0
-360.088 -4.59043 0
-358.53 -4.59049 0
-356.973 -4.5908 0
-355.412 -4.59262 0
-353.849 -4.59169 0
-352.296 -4.58215 0
-350.734 -4.58156 0
-349.174 -4.58418 0
-347.617 -4.58361 0
-346.054 -4.58623 0
-344.494 -4.58816 0
-342.937 -4.58709 0
-341.379 -4.58161 0
-339.819 -4.58514 0
-338.262 -4.58216 0
-336.701 -4.58226 0
-335.143 -4.58582 0
-333.584 -4.58065 0
-332.02 -4.58179 0
-330.465 -4.58501 0
-328.903 -4.58623 0
-327.343 -4.58751 0
-325.79 -4.5863 0
-324.232 -4.58908 0
-322.673 -4.58683 0
-321.115 -4.58091 0
-319.556 -4.58551 0
-317.99 -4.58859 0
-316.427 -4.58322 0
-314.87 -4.58445 0
-313.315 -4.57926 0
-311.75 -4.58476 0
-310.193 -4.58732 0
-308.632 -4.5851 0
-307.074 -4.58036 0
-305.519 -4.58475 0
-303.957 -4.58432 0
-302.4 -4.58224 0
-300.843 -4.5819 0
-299.285 -4.58435 0
-297.719 -4.58448 0
-296.161 -4.58263 0
-294.6 -4.58158 0
-293.039 -4.58169 0
-291.479 -4.58321 0
-289.922 -4.5843 0
-288.361 -4.58364 0
-286.801 -4.5892 0
-285.246 -4.58831 0
-283.686 -4.58638 0
-282.131 -4.58681 0
-280.564 -4.58764 0
-279.005 -4.58632 0
-277.444 -4.59167 0
-275.884 -4.5924 0
-274.322 -4.58877 0
-272.764 -4.5933 0
-271.205 -4.58788 0
-269.648 -4.58403 0
-268.091 -4.58651 0
-266.528 -4.59133 0
-264.97 -4.59698 0
-263.415 -4.59601 0
-261.853 -4.59396 0
-260.297 -4.59705 0
-258.742 -4.59229 0
-257.179 -4.59581 0
-255.619 -4.59717 0
-254.063 -4.59577 0
-252.504 -4.59108 0
-250.947 -4.59588 0
-249.384 -4.59589 0
-247.829 -4.59294 0
-246.269 -4.59527 0
-244.708 -4.60198 0
-243.15 -4.59675 0
-241.595 -4.5884 0
-240.034 -4.58836 0
-238.472 -4.59115 0
-236.915 -4.59103 0
-235.356 -4.59514 0
-233.796 -4.59623 0
-232.236 -4.59834 0
-230.681 -4.60112 0
-229.121 -4.60431 0
-227.561 -4.60236 0
-226.003 -4.5974 0
-224.444 -4.60491 0
-222.884 -4.60417 0
-221.326 -4.60323 0
-219.768 -4.60282 0
-218.209 -4.60174 0
-216.65 -4.6054 0
-215.09 -4.60612 0
-213.53 -4.60301 0
-211.971 -4.60211 0
-210.413 -4.59883 0
-208.853 -4.60016 0
-207.293 -4.60582 0
-205.731 -4.60246 0
-204.174 -4.60161 0
-202.618 -4.60401 0
-201.06 -4.60444 0
-199.5 -4.60257 0
-197.94 -4.59998 0
-196.382 -4.6029 0
-194.824 -4.60022 0
-193.264 -4.59796 0
-191.706 -4.59685 0
-190.148 -4.59752 0
-188.587 -4.59782 0
-187.027 -4.60069 0
-185.467 -4.60273 0
-183.913 -4.59703 0
-182.355 -4.59786 0
-180.795 -4.60196 0
-179.24 -4.59698 0
-177.681 -4.59533 0
-176.117 -4.5965 0
-174.557 -4.60032 0
-172.998 -4.59944 0
-171.441 -4.60167 0
-169.889 -4.60275 0
-168.328 -4.60045 0
-166.764 -4.60286 0
-165.209 -4.60691 0
-163.651 -4.60352 0
-162.094 -4.60051 0
-160.533 -4.60344 0
-158.973 -4.60241 0
-157.411 -4.60647 0
-155.854 -4.60385 0
-154.297 -4.60581 0
-152.74 -4.60446 0
-151.179 -4.60606 0
-149.618 -4.60212 0
-148.057 -4.60123 0
-146.497 -4.60462 0
-144.943 -4.60303 0
-143.386 -4.60437 0
-141.83 -4.60351 0
-140.269 -4.60154 0
-138.711 -4.59595 0
-137.152 -4.59663 0
-135.594 -4.59476 0
-134.034 -4.59583 0
-132.468 -4.59786 0
-130.91 -4.60423 0
-129.354 -4.60256 0
-127.795 -4.6012 0
-126.236 -4.60228 0
-124.673 -4.60116 0
-123.117 -4.59807 0
-121.559 -4.60019 0
-120.005 -4.59775 0
-118.448 -4.5941 0
-116.888 -4.59864 0
-115.33 -4.5992 0
-113.772 -4.59828 0
-112.211 -4.59419 0
-110.657 -4.59552 0
-109.093 -4.59952 0
-107.536 -4.59628 0
-105.977 -4.59164 0
-104.415 -4.59305 0
-102.856 -4.59766 0
-101.297 -4.59436 0
-99.7408 -4.59802 0
-98.1859 -4.59844 0
-96.6254 -4.59595 0
-95.0692 -4.59546 0
-93.5084 -4.60026 0
-91.9527 -4.59762 0
-90.3922 -4.59357 0
-88.8359 -4.59255 0
-87.2761 -4.59724 0
-85.7148 -4.59131 0
-84.1559 -4.58586 0
-82.5888 -4.59365 0
-81.0339 -4.59627 0
-79.4746 -4.59225 0
-77.9141 -4.59281 0
-76.358 -4.59695 0
-74.803 -4.60167 0
-73.2429 -4.59755 0
-71.683 -4.59375 0
-70.123 -4.60002 0
-68.5623 -4.60186 0
-67.0086 -4.59908 0
-65.4508 -4.59565 0
-63.8928 -4.59524 0
-62.3372 -4.59533 0
-60.7761 -4.59101 0
-59.2204 -4.593 0
-57.6615 -4.59711 0
-56.1019 -4.59846 0
-54.5469 -4.59613 0
-52.9879 -4.5941 0
-51.4243 -4.59787 0
-49.8667 -4.59947 0
-48.3123 -4.59938 0
-46.7554 -4.5997 0
-45.1999 -4.60156 0
-43.6367 -4.59584 0
-42.0737 -4.59907 0
-40.5194 -4.59907 0
-38.9619 -4.60083 0
-37.4042 -4.59625 0
-35.8461 -4.59491 0
-34.2889 -4.59723 0
-32.7324 -4.59825 0
-31.1671 -4.59646 0
-29.6038 -4.59025 0
-28.0495 -4.59861 0
-26.4926 -4.59961 0
-24.9341 -4.5929 0
-23.3772 -4.59218 0
-21.8146 -4.59531 0
-20.2579 -4.59409 0
-18.7075 -4.59561 0
-17.146 -4.5956 0
-15.5782 -4.59837 0
-14.0273 -4.60005 0
-12.4683 -4.59683 0
-10.9096 -4.59819 0
-9.35052 -4.58999 0
-7.79575 -4.59536 0
-6.23374 -4.59654 0
-4.67501 -4.5964 0
-3.11908 -4.59877 0
-1.55942 -4.60103 0
0 -4.59881 0
-1044.13 78.3622 0
-1044.55 69.6221 0
-1044.96 61.0336 0
-1045.35 52.6635 0
-1045.69 44.5527 0
-1045.99 36.7834 0
-1046.23 29.443 0
-1046.44 22.5895 0
-1046.6 16.2536 0
-1046.71 10.4536 0
-1046.76 5.20716 0
-1046.73 0.530202 0
-1046.66 -3.58881 0
-1046.64 -7.26991 0
-1046.68 -10.7052 0
-1046.63 -13.907 0
-1046.53 -16.7642 0
-1046.4 -19.2417 0
-1046.24 -21.3421 0
-1046.06 -23.0748 0
-1045.85 -24.4554 0
-1045.61 -25.5045 0
-1045.32 -26.2504 0
-1044.99 -26.7242 0
-1044.61 -26.9556 0
-1044.17 -26.9728 0
-1043.68 -26.8043 0
-1043.13 -26.4705 0
-1042.51 -25.9939 0
-1041.84 -25.3923 0
-1041.11 -24.6843 0
-1040.31 -23.8833 0
-1039.47 -23.006 0
-1038.56 -22.0628 0
-1037.6 -21.0682 0
-1036.6 -20.0302 0
-1035.54 -18.9619 0
-1034.43 -17.8706 0
-1033.28 -16.7661 0
-1032.09 -15.6542 0
-1030.85 -14.5429 0
-1029.58 -13.4368 0
-1028.26 -12.3435 0
-1026.92 -11.2661 0
-1025.54 -10.2102 0
-1024.13 -9.17929 0
-1022.69 -8.17602 0
-1021.23 -7.20579 0
-1019.74 -6.26739 0
-1018.22 -5.36548 0
-1016.69 -4.50108 0
-1015.13 -3.67602 0
-1013.56 -2.89139 0
-1011.97 -2.14925 0
-1010.36 -1.44882 0
-1008.74 -0.790446 0
-1007.11 -0.174589 0
-1005.47 0.397605 0
-1003.82 0.927163 0
-1002.15 1.41425 0
-1000.48 1.85849 0
-998.807 2.26208 0
-997.124 2.62542 0
-995.438 2.94826 0
-993.747 3.23163 0
-992.052 3.47721 0
-990.357 3.68437 0
-988.659 3.85631 0
-986.961 3.99395 0
-985.263 4.09859 0
-983.566 4.17048 0
-981.87 4.21178 0
-980.175 4.22414 0
-978.484 4.20713 0
-976.794 4.16351 0
-975.108 4.0962 0
-973.425 4.0043 0
-971.748 3.89096 0
-970.073 3.75539 0
-968.404 3.6021 0
-966.739 3.42983 0
-965.079 3.24114 0
-963.424 3.03819 0
-961.775 2.82132 0
-960.13 2.59346 0
-958.492 2.35429 0
-956.86 2.10498 0
-955.232 1.84634 0
-953.611 1.58353 0
-951.995 1.31433 0
-950.385 1.03973 0
-948.78 0.763206 0
-947.181 0.483925 0
-945.588 0.203316 0
-943.999 -0.0782232 0
-942.417 -0.358829 0
-940.839 -0.637363 0
-939.265 -0.912041 0
-937.696 -1.18372 0
-936.131 -1.45204 0
-934.571 -1.71439 0
-933.014 -1.97256 0
-931.462 -2.22282 0
-929.914 -2.46554 0
-928.369 -2.70131 0
-926.827 -2.93037 0
-925.289 -3.15057 0
-923.753 -3.36075 0
-922.218 -3.56247 0
-920.688 -3.75571 0
-919.159 -3.93723 0
-917.631 -4.11076 0
-916.107 -4.27394 0
-914.584 -4.42512 0
-913.06 -4.56706 0
-911.539 -4.69923 0
-910.02 -4.82274 0
-908.501 -4.93449 0
-906.981 -5.035 0
-905.463 -5.126 0
-903.945 -5.20743 0
-902.426 -5.27794 0
-900.907 -5.34118 0
-899.388 -5.39323 0
-897.87 -5.43514 0
-896.352 -5.46932 0
-894.832 -5.49541 0
-893.311 -5.5119 0
-891.789 -5.52021 0
-890.267 -5.52052 0
-888.744 -5.51407 0
-887.221 -5.49942 0
-885.696 -5.47868 0
-884.17 -5.45035 0
-882.642 -5.41493 0
-881.112 -5.37466 0
-879.583 -5.33108 0
-878.051 -5.28015 0
-876.517 -5.22399 0
-874.982 -5.16389 0
-873.447 -5.09978 0
-871.908 -5.02989 0
-870.37 -4.95829 0
-868.829 -4.88375 0
-867.288 -4.80673 0
-865.745 -4.72759 0
-864.2 -4.64574 0
-862.654 -4.56398 0
-861.105 -4.47964 0
-859.556 -4.39422 0
-858.004 -4.30763 0
-856.451 -4.21995 0
-854.898 -4.13213 0
-853.341 -4.04519 0
-851.785 -3.95681 0
-850.227 -3.86957 0
-848.669 -3.78164 0
-847.109 -3.69676 0
-845.549 -3.6117 0
-843.986 -3.52877 0
-842.423 -3.44807 0
-840.859 -3.36862 0
-839.296 -3.29083 0
-837.731 -3.21432 0
-836.163 -3.13838 0
-834.596 -3.06427 0
-833.029 -2.99653 0
-831.459 -2.92934 0
-829.89 -2.86549 0
-828.32 -2.80388 0
-826.75 -2.74256 0
-825.18 -2.6862 0
-823.609 -2.63158 0
-822.039 -2.58047 0
-820.466 -2.53326 0
-818.893 -2.48689 0
-817.322 -2.44386 0
-815.749 -2.40356 0
-814.177 -2.36784 0
-812.603 -2.3342 0
-811.029 -2.30449 0
-809.455 -2.27543 0
-807.882 -2.25026 0
-806.311 -2.22667 0
-804.739 -2.20716 0
-803.166 -2.18958 0
-801.592 -2.17616 0
-800.02 -2.16417 0
-798.448 -2.15273 0
-796.876 -2.14559 0
-795.304 -2.14156 0
-793.732 -2.13894 0
-792.16 -2.139 0
-790.588 -2.14331 0
-789.017 -2.14578 0
-787.447 -2.15329 0
-785.877 -2.16209 0
-784.308 -2.17194 0
-782.737 -2.18484 0
-781.168 -2.19848 0
-779.6 -2.21334 0
-778.031 -2.22865 0
-776.464 -2.24882 0
-774.894 -2.26655 0
-773.327 -2.28691 0
-771.76 -2.31019 0
-770.194 -2.33303 0
-768.629 -2.3565 0
-767.065 -2.38212 0
-765.498 -2.40737 0
-763.933 -2.43245 0
-762.369 -2.46098 0
-760.805 -2.48738 0
-759.242 -2.5144 0
-757.679 -2.54097 0
-756.116 -2.56862 0
-754.554 -2.59891 0
-752.994 -2.62734 0
-751.433 -2.65395 0
-749.872 -2.68126 0
-748.311 -2.71373 0
-746.751 -2.73924 0
-745.19 -2.76982 0
-743.631 -2.7971 0
-742.071 -2.82742 0
-740.513 -2.85246 0
-738.953 -2.87719 0
-737.394 -2.90626 0
-735.836 -2.92998 0
-734.28 -2.95516 0
-732.721 -2.98119 0
-731.165 -3.0047 0
-729.605 -3.02637 0
-728.049 -3.04823 0
-726.489 -3.07143 0
-724.933 -3.09208 0
-723.377 -3.11339 0
-721.818 -3.13014 0
-720.261 -3.14939 0
-718.706 -3.16786 0
-717.152 -3.18608 0
-715.594 -3.20251 0
-714.039 -3.21566 0
-712.482 -3.22892 0
-710.925 -3.24338 0
-709.369 -3.2546 0
-707.812 -3.26674 0
-706.257 -3.27572 0
-704.703 -3.2858 0
-703.146 -3.29644 0
-701.591 -3.30325 0
-700.036 -3.31054 0
-698.479 -3.31767 0
-696.922 -3.3219 0
-695.367 -3.32348 0
-693.812 -3.33029 0
-692.256 -3.32993 0
-690.699 -3.33371 0
-689.142 -3.33398 0
-687.586 -3.33649 0
-686.032 -3.33718 0
-684.474 -3.33321 0
-682.917 -3.33315 0
-681.361 -3.33092 0
-679.804 -3.33118 0
-678.247 -3.3279 0
-676.69 -3.32269 0
-675.133 -3.3174 0
-673.577 -3.31437 0
-672.019 -3.30665 0
-670.462 -3.30115 0
-668.903 -3.2968 0
-667.348 -3.28934 0
-665.789 -3.28254 0
-664.23 -3.27572 0
-662.672 -3.26982 0
-661.114 -3.25938 0
-659.556 -3.25331 0
-657.999 -3.24505 0
-656.44 -3.23698 0
-654.882 -3.22899 0
-653.321 -3.22114 0
-651.761 -3.21348 0
-650.204 -3.20524 0
-648.646 -3.1926 0
-647.086 -3.18552 0
-645.528 -3.17657 0
-643.97 -3.16982 0
-642.411 -3.16244 0
-640.85 -3.1497 0
-639.291 -3.14005 0
-637.731 -3.13067 0
-636.17 -3.1193 0
-634.61 -3.11187 0
-633.052 -3.10474 0
-631.49 -3.09839 0
-629.93 -3.08796 0
-628.371 -3.08103 0
-626.81 -3.07301 0
-625.25 -3.06542 0
-623.689 -3.0585 0
-622.13 -3.04816 0
-620.57 -3.04332 0
-619.008 -3.03875 0
-617.446 -3.02856 0
-615.886 -3.02185 0
-614.325 -3.01282 0
-612.764 -3.01007 0
-611.202 -3.00536 0
-609.64 -2.99986 0
-608.078 -2.99468 0
-606.52 -2.98875 0
-604.959 -2.98233 0
-603.396 -2.97647 0
-601.836 -2.97525 0
-600.274 -2.97224 0
-598.713 -2.969 0
-597.152 -2.96665 0
-595.592 -2.96425 0
-594.032 -2.95804 0
-592.472 -2.95636 0
-590.912 -2.95399 0
-589.352 -2.94997 0
-587.792 -2.94767 0
-586.229 -2.94614 0
-584.668 -2.94198 0
-583.104 -2.94386 0
-581.544 -2.94186 0
-579.984 -2.94329 0
-578.421 -2.9425 0
-576.861 -2.94122 0
-575.3 -2.94339 0
-573.736 -2.94431 0
-572.177 -2.94604 0
-570.62 -2.94688 0
-569.058 -2.94529 0
-567.497 -2.94559 0
-565.935 -2.94797 0
-564.373 -2.94806 0
-562.816 -2.94974 0
-561.257 -2.95298 0
-559.695 -2.95601 0
-558.133 -2.95678 0
-556.576 -2.95879 0
-555.014 -2.96207 0
-553.453 -2.96255 0
-551.894 -2.96391 0
-550.335 -2.96641 0
-548.774 -2.97084 0
-547.214 -2.97423 0
-545.652 -2.97588 0
-544.093 -2.97927 0
-542.533 -2.98173 0
-540.971 -2.98508 0
-539.411 -2.99049 0
-537.851 -2.99524 0
-536.291 -2.99422 0
-534.727 -2.99929 0
-533.167 -3.00315 0
-531.608 -3.00759 0
-530.052 -3.01141 0
-528.491 -3.01354 0
-526.93 -3.01593 0
-525.37 -3.01662 0
-523.814 -3.01992 0
-522.255 -3.02579 0
-520.692 -3.02426 0
-519.135 -3.03036 0
-517.574 -3.03476 0
-516.013 -3.03771 0
-514.453 -3.04008 0
-512.893 -3.04335 0
-511.335 -3.04738 0
-509.775 -3.05318 0
-508.217 -3.05545 0
-506.657 -3.05866 0
-505.099 -3.05766 0
-503.541 -3.05827 0
-501.981 -3.06258 0
-500.419 -3.0653 0
-498.861 -3.06979 0
-497.301 -3.06873 0
-495.742 -3.07193 0
-494.184 -3.07301 0
-492.626 -3.07702 0
-491.065 -3.08158 0
-489.504 -3.08302 0
-487.946 -3.08543 0
-486.39 -3.0877 0
-484.828 -3.08778 0
-483.267 -3.08814 0
-481.71 -3.08637 0
-480.151 -3.08612 0
-478.591 -3.0912 0
-477.035 -3.0916 0
-475.474 -3.0949 0
-473.915 -3.09639 0
-472.356 -3.10006 0
-470.796 -3.09965 0
-469.236 -3.09803 0
-467.675 -3.09863 0
-466.117 -3.10032 0
-464.558 -3.09993 0
-463 -3.10348 0
-461.44 -3.10466 0
-459.881 -3.1057 0
-458.322 -3.10639 0
-456.763 -3.10603 0
-455.208 -3.10462 0
-453.648 -3.10803 0
-452.091 -3.10588 0
-450.534 -3.10054 0
-448.971 -3.1007 0
-447.411 -3.10251 0
-445.855 -3.10058 0
-444.295 -3.10235 0
-442.737 -3.0986 0
-441.177 -3.09682 0
-439.618 -3.09689 0
-438.06 -3.09579 0
-436.5 -3.09352 0
-434.941 -3.09991 0
-433.382 -3.09863 0
-431.823 -3.10032 0
-430.265 -3.10003 0
-428.707 -3.09838 0
-427.145 -3.09384 0
-425.588 -3.09431 0
-424.033 -3.09378 0
-422.474 -3.09444 0
-420.912 -3.09347 0
-419.353 -3.08908 0
-417.796 -3.08714 0
-416.235 -3.0854 0
-414.672 -3.08589 0
-413.113 -3.08068 0
-411.551 -3.07997 0
-409.994 -3.07738 0
-408.432 -3.07946 0
-406.874 -3.08191 0
-405.316 -3.07825 0
-403.756 -3.07576 0
-402.198 -3.07795 0
-400.635 -3.07587 0
-399.077 -3.07599 0
-397.518 -3.07541 0
-395.958 -3.07207 0
-394.399 -3.07486 0
-392.842 -3.0723 0
-391.282 -3.07208 0
-389.724 -3.0708 0
-388.163 -3.07001 0
-386.6 -3.0699 0
-385.041 -3.06814 0
-383.482 -3.06372 0
-381.923 -3.06297 0
-380.36 -3.06183 0
-378.802 -3.06115 0
-377.243 -3.06078 0
-375.685 -3.06185 0
-374.122 -3.06174 0
-372.562 -3.0625 0
-371.004 -3.06167 0
-369.445 -3.05968 0
-367.883 -3.05967 0
-366.323 -3.05679 0
-364.766 -3.0527 0
-363.21 -3.05242 0
-361.65 -3.0517 0
-360.09 -3.05481 0
-358.532 -3.05601 0
-356.971 -3.05557 0
-355.411 -3.05629 0
-353.852 -3.05479 0
-352.293 -3.05218 0
-350.734 -3.04762 0
-349.173 -3.05045 0
-347.614 -3.04984 0
-346.056 -3.04886 0
-344.498 -3.05151 0
-342.937 -3.05156 0
-341.379 -3.04893 0
-339.82 -3.05085 0
-338.259 -3.04862 0
-336.701 -3.05153 0
-335.144 -3.05132 0
-333.583 -3.04842 0
-332.023 -3.04846 0
-330.463 -3.0518 0
-328.906 -3.04975 0
-327.348 -3.05209 0
-325.789 -3.05362 0
-324.231 -3.05133 0
-322.67 -3.05067 0
-321.113 -3.04781 0
-319.551 -3.04659 0
-317.992 -3.04984 0
-316.431 -3.04785 0
-314.873 -3.04613 0
-313.316 -3.04432 0
-311.756 -3.04589 0
-310.194 -3.0495 0
-308.633 -3.0495 0
-307.075 -3.04907 0
-305.516 -3.04854 0
-303.958 -3.05076 0
-302.398 -3.04907 0
-300.84 -3.04733 0
-299.28 -3.05114 0
-297.721 -3.04636 0
-296.159 -3.04527 0
-294.599 -3.04873 0
-293.042 -3.04649 0
-291.478 -3.04798 0
-289.921 -3.05011 0
-288.362 -3.0474 0
-286.804 -3.05344 0
-285.245 -3.05139 0
-283.687 -3.05558 0
-282.126 -3.05466 0
-280.567 -3.0518 0
-279.007 -3.0519 0
-277.45 -3.05633 0
-275.891 -3.05556 0
-274.328 -3.05527 0
-272.767 -3.05616 0
-271.209 -3.05676 0
-269.652 -3.05091 0
-268.093 -3.05426 0
-266.533 -3.05636 0
-264.973 -3.06065 0
-263.412 -3.06175 0
-261.856 -3.05773 0
-260.299 -3.06182 0
-258.739 -3.06376 0
-257.183 -3.06194 0
-255.621 -3.06331 0
-254.063 -3.06102 0
-252.501 -3.05988 0
-250.943 -3.06262 0
-249.384 -3.05931 0
-247.828 -3.0616 0
-246.268 -3.06507 0
-244.708 -3.06327 0
-243.153 -3.06213 0
-241.593 -3.05684 0
-240.034 -3.05826 0
-238.475 -3.05766 0
-236.916 -3.0567 0
-235.357 -3.05838 0
-233.798 -3.0631 0
-232.242 -3.0628 0
-230.681 -3.06471 0
-229.12 -3.06628 0
-227.56 -3.06575 0
-226.005 -3.06556 0
-224.446 -3.06857 0
-222.886 -3.07209 0
-221.326 -3.06791 0
-219.767 -3.06811 0
-218.208 -3.06876 0
-216.651 -3.07029 0
-215.09 -3.07088 0
-213.528 -3.06885 0
-211.968 -3.06862 0
-210.411 -3.06491 0
-208.853 -3.06516 0
-207.293 -3.069 0
-205.736 -3.06976 0
-204.178 -3.06792 0
-202.619 -3.06983 0
-201.057 -3.06974 0
-199.498 -3.06641 0
-197.94 -3.06833 0
-196.383 -3.06732 0
-194.823 -3.06748 0
-193.266 -3.06451 0
-191.704 -3.06473 0
-190.148 -3.06308 0
-188.591 -3.06331 0
-187.029 -3.06373 0
-185.471 -3.06645 0
-183.911 -3.06499 0
-182.354 -3.06484 0
-180.796 -3.06291 0
-179.239 -3.0647 0
-177.682 -3.06316 0
-176.122 -3.06325 0
-174.561 -3.06631 0
-173.001 -3.06636 0
-171.439 -3.06693 0
-169.881 -3.06679 0
-168.325 -3.06653 0
-166.768 -3.06825 0
-165.205 -3.07091 0
-163.649 -3.06969 0
-162.09 -3.07021 0
-160.533 -3.06659 0
-158.971 -3.06539 0
-157.41 -3.07213 0
-155.854 -3.07072 0
-154.295 -3.07337 0
-152.735 -3.07073 0
-151.174 -3.0696 0
-149.613 -3.06826 0
-148.056 -3.06548 0
-146.501 -3.06835 0
-144.943 -3.06941 0
-143.383 -3.07052 0
-141.826 -3.06737 0
-140.268 -3.06519 0
-138.711 -3.06558 0
-137.153 -3.06274 0
-135.594 -3.05981 0
-134.034 -3.05794 0
-132.477 -3.0657 0
-130.913 -3.06894 0
-129.353 -3.06811 0
-127.793 -3.06579 0
-126.234 -3.06376 0
-124.674 -3.06399 0
-123.118 -3.06636 0
-121.561 -3.06768 0
-120.005 -3.06521 0
-118.447 -3.06331 0
-116.888 -3.06163 0
-115.326 -3.06448 0
-113.769 -3.05945 0
-112.209 -3.06315 0
-110.654 -3.06117 0
-109.094 -3.0635 0
-107.534 -3.0625 0
-105.975 -3.05705 0
-104.416 -3.05679 0
-102.855 -3.06159 0
-101.299 -3.06091 0
-99.7401 -3.0624 0
-98.184 -3.05954 0
-96.6289 -3.06247 0
-95.0689 -3.06094 0
-93.5106 -3.06455 0
-91.9523 -3.06022 0
-90.3931 -3.06093 0
-88.8316 -3.05989 0
-87.2728 -3.06072 0
-85.7126 -3.05643 0
-84.1514 -3.05431 0
-82.592 -3.05863 0
-81.0329 -3.05948 0
-79.4764 -3.05998 0
-77.9193 -3.06137 0
-76.3597 -3.06336 0
-74.7999 -3.06782 0
-73.2425 -3.06143 0
-71.6831 -3.06251 0
-70.1258 -3.06372 0
-68.563 -3.06796 0
-67.0063 -3.06711 0
-65.4499 -3.06494 0
-63.8932 -3.06314 0
-62.3335 -3.06216 0
-60.7781 -3.06022 0
-59.2206 -3.0633 0
-57.6634 -3.06555 0
-56.1047 -3.06438 0
-54.548 -3.06343 0
-52.9883 -3.06005 0
-51.4275 -3.06425 0
-49.8667 -3.06612 0
-48.3108 -3.0646 0
-46.7553 -3.06552 0
-45.1959 -3.06526 0
-43.6335 -3.06343 0
-42.0771 -3.06573 0
-40.5213 -3.06667 0
-38.9622 -3.06564 0
-37.4045 -3.06318 0
-35.845 -3.06444 0
-34.2872 -3.06365 0
-32.7292 -3.06165 0
-31.1683 -3.05961 0
-29.6134 -3.05675 0
-28.0515 -3.06145 0
-26.4945 -3.06391 0
-24.9334 -3.05841 0
-23.3762 -3.06065 0
-21.8168 -3.0615 0
-20.2563 -3.06261 0
-18.7017 -3.06004 0
-17.1449 -3.05819 0
-15.5877 -3.06446 0
-14.0259 -3.06589 0
-12.4687 -3.06365 0
-10.9102 -3.06396 0
-9.3525 -3.06242 0
-7.79363 -3.05988 0
-6.23483 -3.06095 0
-4.67802 -3.06149 0
-3.1208 -3.06575 0
-1.55615 -3.06328 0
0 -3.06367 0
-1053.06 79.2969 0
-1053.08 70.3018 0
-1053.26 61.695 0
-1053.39 53.3312 0
-1053.43 45.2413 0
-1053.37 37.483 0
-1053.22 30.1337 0
-1052.98 23.2593 0
-1052.67 16.9042 0
-1052.3 11.0939 0
-1051.86 5.84341 0
-1051.37 1.14776 0
-1050.9 -3.04882 0
-1050.5 -6.86057 0
-1050.14 -10.3375 0
-1049.78 -13.4919 0
-1049.36 -16.3267 0
-1048.88 -18.802 0
-1048.36 -20.9052 0
-1047.83 -22.6381 0
-1047.28 -24.0148 0
-1046.71 -25.0543 0
-1046.13 -25.7844 0
-1045.54 -26.2337 0
-1044.92 -26.4332 0
-1044.27 -26.4129 0
-1043.59 -26.2003 0
-1042.87 -25.8204 0
-1042.12 -25.2947 0
-1041.32 -24.6435 0
-1040.48 -23.8844 0
-1039.6 -23.0337 0
-1038.67 -22.1057 0
-1037.71 -21.1153 0
-1036.7 -20.0727 0
-1035.65 -18.9888 0
-1034.56 -17.8756 0
-1033.43 -16.742 0
-1032.26 -15.5962 0
-1031.06 -14.4456 0
-1029.82 -13.2973 0
-1028.56 -12.1564 0
-1027.25 -11.0292 0
-1025.92 -9.92133 0
-1024.56 -8.83553 0
-1023.18 -7.77701 0
-1021.77 -6.74877 0
-1020.33 -5.75327 0
-1018.87 -4.79293 0
-1017.39 -3.87038 0
-1015.89 -2.98771 0
-1014.37 -2.14446 0
-1012.84 -1.34408 0
-1011.29 -0.586378 0
-1009.72 0.127203 0
-1008.14 0.797826 0
-1006.55 1.4239 0
-1004.95 2.00629 0
-1003.33 2.54433 0
-1001.71 3.0401 0
-1000.08 3.49102 0
-998.443 3.89974 0
-996.799 4.26829 0
-995.15 4.59487 0
-993.495 4.88173 0
-991.837 5.12973 0
-990.176 5.33871 0
-988.511 5.51217 0
-986.846 5.65023 0
-985.178 5.75438 0
-983.511 5.82689 0
-981.844 5.8657 0
-980.176 5.87556 0
-978.511 5.85717 0
-976.846 5.81164 0
-975.183 5.74107 0
-973.523 5.64613 0
-971.865 5.52939 0
-970.209 5.39064 0
-968.557 5.23242 0
-966.908 5.05561 0
-965.263 4.86245 0
-963.623 4.65589 0
-961.986 4.43458 0
-960.353 4.20046 0
-958.724 3.95709 0
-957.101 3.7028 0
-955.48 3.44008 0
-953.865 3.17198 0
-952.254 2.89721 0
-950.648 2.61918 0
-949.046 2.33664 0
-947.448 2.05242 0
-945.856 1.76694 0
-944.267 1.48112 0
-942.683 1.19531 0
-941.103 0.913644 0
-939.526 0.634189 0
-937.953 0.358933 0
-936.384 0.0872392 0
-934.818 -0.179816 0
-933.257 -0.439958 0