<?xml version="1.0"?>
<VTKFile type="StructuredGrid"  version="0.1" byte_order="LittleEndian" compressor="vtkZLibDataCompressor">
  <StructuredGrid WholeExtent="0 700 0 30 0 0">
    <Piece Extent="0 700 0 30 0 0">
      <PointData Vectors="Velocity">
        <DataArray type="Float32" Name="Velocity" NumberOfComponents="3" format="ascii">
-1080.42 114.936 0
-1080.78 104.196 0
-1081.19 93.5844 0
-1081.63 83.1867 0
-1082.09 73.0363 0
-1082.58 63.2083 0
-1083.12 53.7654 0
-1083.71 44.7789 0
-1084.31 36.282 0
-1084.91 28.3156 0
-1085.49 20.8722 0
-1086.05 14 0
-1086.58 7.70777 0
-1087.04 1.99859 0
-1087.3 -3.22114 0
-1087.51 -8.12119 0
-1087.75 -12.7223 0
-1088.04 -16.9647 0
-1088.28 -20.8313 0
-1088.5 -24.308 0
-1088.7 -27.3966 0
-1088.88 -30.1054 0
-1089.03 -32.4331 0
-1089.13 -34.4084 0
-1089.18 -36.0479 0
-1089.18 -37.3664 0
-1089.11 -38.4047 0
-1088.97 -39.1685 0
-1088.76 -39.6974 0
-1088.48 -39.9915 0
-1088.13 -40.0881 0
-1087.71 -39.9991 0
-1087.23 -39.7401 0
-1086.67 -39.323 0
-1086.05 -38.7673 0
-1085.36 -38.0848 0
-1084.6 -37.2855 0
-1083.78 -36.3874 0
-1082.9 -35.4063 0
-1081.96 -34.3459 0
-1080.96 -33.2069 0
-1079.91 -32.0162 0
-1078.81 -30.7706 0
-1077.65 -29.4941 0
-1076.44 -28.1727 0
-1075.18 -26.8315 0
-1073.89 -25.4683 0
-1072.55 -24.0947 0
-1071.16 -22.7121 0
-1069.74 -21.3283 0
-1068.28 -19.9475 0
-1066.79 -18.5776 0
-1065.26 -17.2195 0
-1063.7 -15.8786 0
-1062.12 -14.5561 0
-1060.5 -13.2583 0
-1058.86 -11.9879 0
-1057.2 -10.7449 0
-1055.51 -9.5338 0
-1053.81 -8.3553 0
-1052.08 -7.21339 0
-1050.34 -6.10692 0
-1048.58 -5.04209 0
-1046.81 -4.01581 0
-1045.02 -3.03167 0
-1043.21 -2.08598 0
-1041.4 -1.18415 0
-1039.58 -0.324631 0
-1037.74 0.489291 0
-1035.91 1.25792 0
-1034.06 1.98392 0
-1032.21 2.66377 0
-1030.35 3.30579 0
-1028.48 3.90237 0
-1026.62 4.45138 0
-1024.75 4.96302 0
-1022.88 5.42908 0
-1021.01 5.85471 0
-1019.13 6.23705 0
-1017.26 6.57805 0
-1015.39 6.87766 0
-1013.52 7.13889 0
-1011.66 7.36382 0
-1009.79 7.54661 0
-1007.93 7.69568 0
-1006.08 7.81105 0
-1004.22 7.88923 0
-1002.37 7.93528 0
-1000.53 7.94772 0
-998.692 7.92933 0
-996.857 7.88175 0
-995.028 7.80488 0
-993.206 7.70093 0
-991.393 7.57054 0
-989.584 7.42009 0
-987.782 7.24071 0
-985.989 7.03731 0
-984.201 6.81642 0
-982.418 6.5747 0
-980.645 6.3132 0
-978.881 6.03319 0
-977.123 5.73738 0
-975.372 5.42665 0
-973.63 5.10389 0
-971.894 4.76687 0
-970.166 4.41895 0
-968.445 4.05984 0
-966.732 3.69257 0
-965.029 3.31674 0
-963.328 2.93903 0
-961.637 2.55044 0
-959.953 2.15689 0
-958.276 1.76092 0
-956.604 1.36422 0
-954.942 0.963031 0
-953.282 0.564736 0
-951.63 0.165092 0
-949.984 -0.235772 0
-948.345 -0.631651 0
-946.71 -1.02213 0
-945.081 -1.41301 0
-943.458 -1.80021 0
-941.84 -2.18103 0
-940.227 -2.55024 0
-938.618 -2.91769 0
-937.012 -3.2814 0
-935.412 -3.63183 0
-933.814 -3.97476 0
-932.22 -4.31122 0
-930.629 -4.63792 0
-929.043 -4.95487 0
-927.458 -5.26023 0
-925.876 -5.55522 0
-924.295 -5.84314 0
-922.718 -6.11758 0
-921.144 -6.38174 0
-919.571 -6.63308 0
-917.999 -6.87475 0
-916.428 -7.10536 0
-914.86 -7.32228 0
-913.292 -7.52728 0
-911.724 -7.72141 0
-910.157 -7.90402 0
-908.592 -8.07742 0
-907.027 -8.23552 0
-905.461 -8.38202 0
-903.894 -8.51322 0
-902.328 -8.6426 0
-900.761 -8.75624 0
-899.196 -8.85947 0
-897.629 -8.94869 0
-896.063 -9.02866 0
-894.495 -9.09557 0
-892.926 -9.15514 0
-891.354 -9.20242 0
-889.782 -9.23997 0
-888.21 -9.26721 0
-886.634 -9.28465 0
-885.06 -9.29284 0
-883.484 -9.29352 0
-881.906 -9.28219 0
-880.325 -9.26594 0
-878.743 -9.24216 0
-877.16 -9.20891 0
-875.574 -9.16814 0
-873.989 -9.1188 0
-872.401 -9.06295 0
-870.811 -9.00195 0
-869.219 -8.93478 0
-867.625 -8.86181 0
-866.029 -8.78367 0
-864.433 -8.6978 0
-862.832 -8.60784 0
-861.23 -8.51408 0
-859.627 -8.41621 0
-858.023 -8.31383 0
-856.415 -8.20837 0
-854.804 -8.09759 0
-853.193 -7.98535 0
-851.579 -7.87219 0
-849.965 -7.75796 0
-848.348 -7.63607 0
-846.73 -7.51445 0
-845.111 -7.39291 0
-843.488 -7.269 0
-841.864 -7.14482 0
-840.238 -7.01921 0
-838.611 -6.89366 0
-836.983 -6.76815 0
-835.352 -6.64079 0
-833.72 -6.51332 0
-832.087 -6.38892 0
-830.454 -6.26491 0
-828.818 -6.14109 0
-827.178 -6.017 0
-825.539 -5.89452 0
-823.902 -5.77364 0
-822.261 -5.65438 0
-820.618 -5.54133 0
-818.976 -5.4249 0
-817.33 -5.30964 0
-815.687 -5.20058 0
-814.04 -5.09327 0
-812.389 -4.98828 0
-810.743 -4.88627 0
-809.096 -4.78759 0
-807.448 -4.68984 0
-805.798 -4.59495 0
-804.147 -4.50426 0
-802.495 -4.41302 0
-800.842 -4.32828 0
-799.191 -4.24493 0
-797.54 -4.16637 0
-795.885 -4.08976 0
-794.232 -4.01661 0
-792.578 -3.9498 0
-790.921 -3.88481 0
-789.266 -3.82285 0
-787.611 -3.76354 0
-785.957 -3.70884 0
-784.303 -3.65531 0
-782.65 -3.60618 0
-780.994 -3.56129 0
-779.338 -3.52019 0
-777.682 -3.48029 0
-776.027 -3.44344 0
-774.373 -3.41076 0
-772.719 -3.38145 0
-771.065 -3.35808 0
-769.412 -3.33502 0
-767.76 -3.31634 0
-766.106 -3.29721 0
-764.452 -3.28531 0
-762.799 -3.27056 0
-761.143 -3.26041 0
-759.493 -3.25654 0
-757.841 -3.25537 0
-756.188 -3.25529 0
-754.536 -3.25916 0
-752.882 -3.26473 0
-751.234 -3.27164 0
-749.583 -3.28091 0
-747.937 -3.29495 0
-746.289 -3.30675 0
-744.638 -3.32538 0
-742.989 -3.34355 0
-741.342 -3.36253 0
-739.696 -3.38254 0
-738.049 -3.40695 0
-736.408 -3.4317 0
-734.763 -3.45988 0
-733.12 -3.48682 0
-731.475 -3.51563 0
-729.832 -3.54821 0
-728.19 -3.57918 0
-726.542 -3.61255 0
-724.903 -3.64613 0
-723.262 -3.68174 0
-721.622 -3.71809 0
-719.981 -3.75444 0
-718.341 -3.79161 0
-716.703 -3.83227 0
-715.063 -3.86965 0
-713.427 -3.90693 0
-711.789 -3.94829 0
-710.152 -3.9865 0
-708.513 -4.0278 0
-706.88 -4.07003 0
-705.246 -4.11305 0
-703.611 -4.15779 0
-701.976 -4.19569 0
-700.34 -4.23797 0
-698.706 -4.27795 0
-697.071 -4.31806 0
-695.439 -4.35888 0
-693.809 -4.39736 0
-692.174 -4.43469 0
-690.541 -4.47854 0
-688.91 -4.5144 0
-687.274 -4.553 0
-685.646 -4.58829 0
-684.014 -4.62693 0
-682.385 -4.66528 0
-680.755 -4.701 0
-679.125 -4.73384 0
-677.495 -4.769 0
-675.866 -4.80314 0
-674.237 -4.83816 0
-672.608 -4.87334 0
-670.981 -4.90599 0
-669.351 -4.93364 0
-667.72 -4.96543 0
-666.095 -4.99396 0
-664.466 -5.02083 0
-662.838 -5.04715 0
-661.208 -5.07466 0
-659.583 -5.10035 0
-657.953 -5.12341 0
-656.326 -5.14783 0
-654.699 -5.16898 0
-653.071 -5.18897 0
-651.446 -5.20806 0
-649.819 -5.22734 0
-648.191 -5.24338 0
-646.564 -5.25948 0
-644.939 -5.27233 0
-643.311 -5.2923 0
-641.685 -5.30713 0
-640.06 -5.32377 0
-638.432 -5.33172 0
-636.806 -5.33943 0
-635.177 -5.34871 0
-633.546 -5.35842 0
-631.918 -5.36425 0
-630.292 -5.37269 0
-628.664 -5.37986 0
-627.039 -5.38186 0
-625.408 -5.3869 0
-623.778 -5.39134 0
-622.15 -5.39497 0
-620.523 -5.39704 0
-618.895 -5.39782 0
-617.268 -5.3968 0
-615.641 -5.3973 0
-614.011 -5.39389 0
-612.384 -5.39305 0
-610.754 -5.38337 0
-609.126 -5.38127 0
-607.493 -5.37853 0
-605.865 -5.36996 0
-604.234 -5.36603 0
-602.603 -5.35558 0
-600.975 -5.35024 0
-599.347 -5.34508 0
-597.715 -5.33555 0
-596.082 -5.33017 0
-594.449 -5.31832 0
-592.82 -5.30963 0
-591.188 -5.29947 0
-589.559 -5.29242 0
-587.929 -5.28076 0
-586.298 -5.26969 0
-584.666 -5.26266 0
-583.033 -5.24758 0
-581.398 -5.23772 0
-579.768 -5.22404 0
-578.137 -5.20892 0
-576.502 -5.19628 0
-574.872 -5.18694 0
-573.241 -5.17148 0
-571.607 -5.15588 0
-569.971 -5.14047 0
-568.34 -5.13181 0
-566.706 -5.11689 0
-565.07 -5.10331 0
-563.433 -5.09123 0
-561.799 -5.08163 0
-560.165 -5.06523 0
-558.532 -5.05112 0
-556.899 -5.04228 0
-555.267 -5.02991 0
-553.632 -5.01466 0
-552.002 -5.00627 0
-550.367 -4.98932 0
-548.733 -4.97787 0
-547.098 -4.96272 0
-545.46 -4.95265 0
-543.825 -4.94312 0
-542.193 -4.93074 0
-540.556 -4.91907 0
-538.919 -4.90634 0
-537.287 -4.89247 0
-535.65 -4.87661 0
-534.017 -4.86785 0
-532.38 -4.85872 0
-530.746 -4.8493 0
-529.111 -4.84029 0
-527.477 -4.83538 0
-525.842 -4.82341 0
-524.206 -4.81034 0
-522.569 -4.8002 0
-520.936 -4.79474 0
-519.301 -4.7836 0
-517.667 -4.77878 0
-516.034 -4.76804 0
-514.396 -4.76127 0
-512.763 -4.75651 0
-511.128 -4.74658 0
-509.489 -4.74248 0
-507.851 -4.73924 0
-506.216 -4.72724 0
-504.581 -4.72247 0
-502.946 -4.72097 0
-501.312 -4.71611 0
-499.679 -4.71558 0
-498.041 -4.70438 0
-496.405 -4.69778 0
-494.769 -4.69575 0
-493.133 -4.69269 0
-491.499 -4.69124 0
-489.864 -4.68774 0
-488.226 -4.68472 0
-486.59 -4.68286 0
-484.956 -4.67982 0
-483.319 -4.68116 0
-481.687 -4.68161 0
-480.049 -4.67407 0
-478.413 -4.67736 0
-476.779 -4.67662 0
-475.145 -4.67436 0
-473.511 -4.67867 0
-471.877 -4.67549 0
-470.242 -4.67302 0
-468.602 -4.67387 0
-466.967 -4.67421 0
-465.336 -4.67796 0
-463.699 -4.67697 0
-462.063 -4.67988 0
-460.43 -4.6877 0
-458.801 -4.68914 0
-457.162 -4.69124 0
-455.527 -4.69543 0
-453.892 -4.69778 0
-452.257 -4.70315 0
-450.624 -4.7069 0
-448.992 -4.71156 0
-447.353 -4.71454 0
-445.72 -4.71782 0
-444.087 -4.7187 0
-442.449 -4.72247 0
-440.81 -4.72437 0
-439.18 -4.73161 0
-437.554 -4.73096 0
-435.922 -4.7373 0
-434.285 -4.73844 0
-432.649 -4.7407 0
-431.016 -4.75139 0
-429.389 -4.75023 0
-427.749 -4.7567 0
-426.116 -4.75741 0
-424.484 -4.76485 0
-422.849 -4.76621 0
-421.216 -4.77166 0
-419.584 -4.776 0
-417.948 -4.78184 0
-416.318 -4.78755 0
-414.681 -4.78672 0
-413.046 -4.79836 0
-411.414 -4.80115 0
-409.781 -4.8029 0
-408.148 -4.80661 0
-406.513 -4.81229 0
-404.881 -4.81953 0
-403.244 -4.82419 0
-401.609 -4.83008 0
-399.978 -4.83136 0
-398.341 -4.83358 0
-396.708 -4.83522 0
-395.076 -4.83562 0
-393.447 -4.84562 0
-391.816 -4.84431 0
-390.181 -4.84923 0
-388.545 -4.85379 0
-386.909 -4.85477 0
-385.28 -4.85646 0
-383.646 -4.86121 0
-382.014 -4.87249 0
-380.381 -4.87056 0
-378.746 -4.87491 0
-377.115 -4.88354 0
-375.483 -4.88313 0
-373.849 -4.88318 0
-372.215 -4.88353 0
-370.584 -4.89447 0
-368.953 -4.89781 0
-367.319 -4.89613 0
-365.683 -4.89641 0
-364.053 -4.89746 0
-362.421 -4.89729 0
-360.785 -4.90218 0
-359.15 -4.90086 0
-357.522 -4.90269 0
-355.884 -4.91243 0
-354.252 -4.91585 0
-352.623 -4.91234 0
-350.99 -4.91487 0
-349.36 -4.91343 0
-347.73 -4.91967 0
-346.095 -4.92398 0
-344.462 -4.92265 0
-342.826 -4.91758 0
-341.195 -4.91897 0
-339.562 -4.92001 0
-337.933 -4.92639 0
-336.304 -4.92774 0
-334.67 -4.92496 0
-333.038 -4.92714 0
-331.408 -4.9274 0
-329.776 -4.92811 0
-328.144 -4.92739 0
-326.512 -4.9242 0
-324.869 -4.92739 0
-323.241 -4.9343 0
-321.61 -4.93222 0
-319.976 -4.93252 0
-318.34 -4.93166 0
-316.709 -4.92872 0
-315.075 -4.93255 0
-313.446 -4.93233 0
-311.819 -4.92616 0
-310.186 -4.92959 0
-308.558 -4.92886 0
-306.923 -4.92985 0
-305.292 -4.92691 0
-303.655 -4.92589 0
-302.022 -4.92282 0
-300.388 -4.92234 0
-298.754 -4.92055 0
-297.127 -4.91799 0
-295.493 -4.91306 0
-293.855 -4.91656 0
-292.225 -4.91835 0
-290.593 -4.91662 0
-288.962 -4.91953 0
-287.332 -4.90861 0
-285.695 -4.91393 0
-284.066 -4.91315 0
-282.428 -4.91233 0
-280.799 -4.91664 0
-279.168 -4.91275 0
-277.539 -4.90858 0
-275.902 -4.90963 0
-274.265 -4.90253 0
-272.636 -4.90491 0
-271.002 -4.90207 0
-269.373 -4.90256 0
-267.742 -4.90094 0
-266.105 -4.89546 0
-264.472 -4.90186 0
-262.835 -4.90227 0
-261.208 -4.8984 0
-259.579 -4.89495 0
-257.942 -4.89414 0
-256.305 -4.89444 0
-254.677 -4.89502 0
-253.039 -4.88792 0
-251.407 -4.88889 0
-249.776 -4.88545 0
-248.141 -4.87841 0
-246.51 -4.88142 0
-244.877 -4.8823 0
-243.247 -4.87702 0
-241.61 -4.88068 0
-239.981 -4.88017 0
-238.348 -4.87531 0
-236.715 -4.87102 0
-235.081 -4.8722 0
-233.446 -4.8759 0
-231.808 -4.87309 0
-230.177 -4.8697 0
-228.547 -4.86596 0
-226.911 -4.86351 0
-225.278 -4.86434 0
-223.643 -4.86891 0
-222.011 -4.86398 0
-220.381 -4.85741 0
-218.747 -4.85547 0
-217.118 -4.85689 0
-215.482 -4.85943 0
-213.847 -4.85724 0
-212.214 -4.85902 0
-210.584 -4.85497 0
-208.953 -4.85159 0
-207.319 -4.85407 0
-205.681 -4.84931 0
-204.047 -4.85019 0
-202.418 -4.84931 0
-200.789 -4.84354 0
-199.154 -4.8426 0
-197.521 -4.84321 0
-195.89 -4.84726 0
-194.251 -4.84476 0
-192.617 -4.84307 0
-190.982 -4.84222 0
-189.352 -4.84313 0
-187.722 -4.84632 0
-186.091 -4.84242 0
-184.455 -4.84238 0
-182.822 -4.84098 0
-181.19 -4.84019 0
-179.562 -4.84852 0
-177.931 -4.84 0
-176.3 -4.83707 0
-174.662 -4.83655 0
-173.032 -4.83549 0
-171.4 -4.84195 0
-169.77 -4.83841 0
-168.139 -4.83814 0
-166.504 -4.84033 0
-164.873 -4.84204 0
-163.231 -4.83824 0
-161.598 -4.84098 0
-159.966 -4.83862 0
-158.332 -4.83399 0
-156.706 -4.83638 0
-155.073 -4.84238 0
-153.437 -4.83869 0
-151.802 -4.8315 0
-150.171 -4.83191 0
-148.535 -4.83596 0
-146.902 -4.83568 0
-145.271 -4.83851 0
-143.64 -4.84337 0
-142.006 -4.83679 0
-140.378 -4.83858 0
-138.741 -4.84186 0
-137.11 -4.839 0
-135.482 -4.84117 0
-133.851 -4.84138 0
-132.217 -4.83765 0
-130.587 -4.83721 0
-128.952 -4.83709 0
-127.315 -4.83728 0
-125.678 -4.84104 0
-124.051 -4.84138 0
-122.419 -4.83855 0
-120.789 -4.84509 0
-119.157 -4.84207 0
-117.521 -4.85114 0
-115.887 -4.85305 0
-114.255 -4.84561 0
-112.619 -4.84605 0
-110.983 -4.84818 0
-109.358 -4.85194 0
-107.729 -4.85065 0
-106.098 -4.84495 0
-104.464 -4.853 0
-102.831 -4.8553 0
-101.198 -4.85495 0
-99.5682 -4.85488 0
-97.9332 -4.86096 0
-96.3024 -4.85521 0
-94.6701 -4.85272 0
-93.0403 -4.84763 0
-91.4088 -4.85114 0
-89.777 -4.84701 0
-88.1424 -4.84889 0
-86.5094 -4.85282 0
-84.8772 -4.84703 0
-83.2457 -4.85204 0
-81.6081 -4.85595 0
-79.9778 -4.85701 0
-78.3499 -4.8626 0
-76.7174 -4.85752 0
-75.0822 -4.85471 0
-73.4497 -4.85532 0
-71.8163 -4.8571 0
-70.1814 -4.85335 0
-68.5573 -4.85845 0
-66.927 -4.85985 0
-65.2883 -4.8612 0
-63.6578 -4.85541 0
-62.0302 -4.85983 0
-60.3945 -4.85286 0
-58.7614 -4.85789 0
-57.1249 -4.85857 0
-55.4922 -4.86058 0
-53.8589 -4.86082 0
-52.2248 -4.86763 0
-50.5966 -4.86408 0
-48.9634 -4.86629 0
-47.3313 -4.86366 0
-45.7013 -4.8591 0
-44.0668 -4.86011 0
-42.4368 -4.86417 0
-40.8039 -4.85986 0
-39.1731 -4.86094 0
-37.5366 -4.86006 0
-35.9051 -4.8545 0
-34.2725 -4.85711 0
-32.6398 -4.85845 0
-31.0119 -4.86139 0
-29.3815 -4.85892 0
-27.7457 -4.85702 0
-26.113 -4.85979 0
-24.4803 -4.85827 0
-22.8479 -4.85957 0
-21.2177 -4.86206 0
-19.582 -4.86458 0
-17.951 -4.86163 0
-16.3239 -4.86044 0
-14.6908 -4.8611 0
-13.0622 -4.86113 0
-11.4311 -4.86301 0
-9.79362 -4.86144 0
-8.15996 -4.86319 0
-6.52474 -4.85944 0
-4.88888 -4.85996 0
-3.262 -4.86479 0
-1.63058 -4.85922 0
0 -4.85765 0
-1091.15 115.331 0
-1091.41 104.54 0
-1091.65 93.8967 0
-1091.88 83.4817 0
-1092.09 73.3078 0
-1092.26 63.4386 0
-1092.39 53.9497 0
-1092.49 44.9123 0
-1092.57 36.3795 0
-1092.63 28.3854 0
-1092.65 20.9361 0
-1092.62 14.0578 0
-1092.53 7.76921 0
-1092.4 2.08002 0
-1092.35 -3.1348 0
-1092.32 -8.03436 0
-1092.25 -12.644 0
-1092.12 -16.8932 0
-1091.98 -20.7599 0
-1091.83 -24.2415 0
-1091.65 -27.3282 0
-1091.46 -30.0175 0
-1091.23 -32.3343 0
-1090.99 -34.2769 0
-1090.71 -35.8847 0
-1090.4 -37.1644 0
-1090.05 -38.1525 0
-1089.65 -38.8655 0
-1089.2 -39.3344 0
-1088.71 -39.5759 0
-1088.16 -39.615 0
-1087.56 -39.464 0
-1086.91 -39.1448 0
-1086.2 -38.669 0
-1085.45 -38.0519 0
-1084.64 -37.3097 0
-1083.77 -36.4545 0
-1082.86 -35.5005 0
-1081.89 -34.4622 0
-1080.88 -33.346 0
-1079.82 -32.1576 0
-1078.71 -30.9173 0
-1077.56 -29.623 0
-1076.36 -28.2984 0
-1075.13 -26.9328 0
-1073.85 -25.5468 0
-1072.53 -24.1457 0
-1071.18 -22.7311 0
-1069.8 -21.3103 0
-1068.37 -19.8934 0
-1066.92 -18.4798 0
-1065.44 -17.076 0
-1063.93 -15.6906 0
-1062.39 -14.3192 0
-1060.82 -12.9736 0
-1059.24 -11.6483 0
-1057.62 -10.3545 0
-1055.99 -9.08839 0
-1054.34 -7.85888 0
-1052.66 -6.66192 0
-1050.98 -5.50365 0
-1049.27 -4.38111 0
-1047.55 -3.30034 0
-1045.82 -2.25857 0
-1044.07 -1.26173 0
-1042.3 -0.30603 0
-1040.53 0.606128 0
-1038.76 1.4714 0
-1036.97 2.29352 0
-1035.17 3.07018 0
-1033.37 3.80253 0
-1031.56 4.49033 0
-1029.74 5.13434 0
-1027.92 5.7333 0
-1026.1 6.28802 0
-1024.27 6.80166 0
-1022.44 7.26846 0
-1020.61 7.69347 0
-1018.78 8.07575 0
-1016.95 8.41608 0
-1015.12 8.71615 0
-1013.29 8.97515 0
-1011.46 9.1973 0
-1009.63 9.37801 0
-1007.81 9.52419 0
-1005.98 9.63441 0
-1004.17 9.71075 0
-1002.35 9.7523 0
-1000.54 9.76032 0
-998.726 9.73786 0
-996.921 9.68431 0
-995.123 9.60333 0
-993.326 9.49268 0
-991.537 9.35724 0
-989.751 9.19916 0
-987.973 9.01494 0
-986.199 8.80567 0
-984.431 8.57808 0
-982.671 8.32814 0
-980.916 8.05879 0
-979.167 7.77284 0
-977.424 7.46903 0
-975.688 7.15307 0
-973.958 6.82262 0
-972.234 6.47957 0
-970.518 6.12506 0
-968.806 5.75762 0
-967.102 5.38463 0
-965.404 5.00268 0
-963.711 4.61646 0
-962.025 4.22291 0
-960.343 3.82299 0
-958.668 3.42115 0
-957 3.01654 0
-955.337 2.61153 0
-953.679 2.20726 0
-952.026 1.8019 0
-950.378 1.39763 0
-948.735 0.996306 0
-947.098 0.598049 0
-945.466 0.202431 0
-943.837 -0.188623 0
-942.212 -0.572744 0
-940.593 -0.947488 0
-938.978 -1.31934 0
-937.367 -1.68473 0
-935.756 -2.03985 0
-934.151 -2.38913 0
-932.547 -2.72658 0
-930.946 -3.05535 0
-929.349 -3.37404 0
-927.756 -3.68291 0
-926.163 -3.98314 0
-924.575 -4.27003 0
-922.986 -4.54767 0
-921.4 -4.81319 0
-919.816 -5.06647 0
-918.231 -5.30972 0
-916.65 -5.54107 0
-915.068 -5.75832 0
-913.489 -5.96622 0
-911.911 -6.15937 0
-910.333 -6.34367 0
-908.756 -6.51663 0
-907.178 -6.67483 0
-905.6 -6.82212 0
-904.023 -6.95591 0
-902.446 -7.08186 0
-900.871 -7.19527 0
-899.292 -7.29781 0
-897.713 -7.38772 0
-896.133 -7.46675 0
-894.556 -7.53416 0
-892.975 -7.59002 0
-891.396 -7.63827 0
-889.815 -7.67381 0
-888.232 -7.69953 0
-886.649 -7.71645 0
-885.065 -7.72366 0
-883.478 -7.72259 0
-881.89 -7.71043 0
-880.302 -7.69356 0
-878.714 -7.66777 0
-877.123 -7.63263 0
-875.531 -7.58902 0
-873.938 -7.53994 0
-872.343 -7.48291 0
-870.745 -7.41881 0
-869.148 -7.35086 0
-867.55 -7.27515 0
-865.948 -7.19566 0
-864.346 -7.10741 0
-862.741 -7.01766 0
-861.136 -6.92066 0
-859.527 -6.82101 0
-857.917 -6.71628 0
-856.306 -6.61018 0
-854.692 -6.49764 0
-853.079 -6.38403 0
-851.465 -6.2678 0
-849.848 -6.15098 0
-848.228 -6.02941 0
-846.609 -5.90645 0
-844.988 -5.78401 0
-843.365 -5.65727 0
-841.74 -5.53164 0
-840.115 -5.40406 0
-838.487 -5.27729 0
-836.858 -5.15111 0
-835.227 -5.02156 0
-833.596 -4.89342 0
-831.964 -4.7669 0
-830.329 -4.64182 0
-828.693 -4.5156 0
-827.058 -4.39063 0
-825.421 -4.26877 0
-823.785 -4.1475 0
-822.146 -4.02542 0
-820.504 -3.9096 0
-818.862 -3.79248 0
-817.221 -3.67746 0
-815.578 -3.56743 0
-813.933 -3.4584 0
-812.289 -3.35353 0
-810.645 -3.25238 0
-808.998 -3.15151 0
-807.351 -3.05255 0
-805.705 -2.95906 0
-804.057 -2.86511 0
-802.408 -2.77605 0
-800.758 -2.6889 0
-799.109 -2.60709 0
-797.459 -2.52645 0
-795.812 -2.45034 0
-794.162 -2.37682 0
-792.511 -2.30859 0
-790.859 -2.24368 0
-789.208 -2.18046 0
-787.555 -2.12233 0
-785.904 -2.06682 0
-784.254 -2.01531 0
-782.602 -1.96596 0
-780.95 -1.92056 0
-779.298 -1.87885 0
-777.646 -1.83835 0
-775.994 -1.80186 0
-774.343 -1.7702 0
-772.692 -1.74076 0
-771.041 -1.71693 0
-769.391 -1.69576 0
-767.739 -1.67453 0
-766.089 -1.65827 0
-764.44 -1.64347 0
-762.787 -1.63048 0
-761.136 -1.62231 0
-759.487 -1.61721 0
-757.838 -1.61566 0
-756.188 -1.61707 0
-754.539 -1.62087 0
-752.89 -1.62802 0
-751.243 -1.63517 0
-749.596 -1.64579 0
-747.948 -1.65766 0
-746.3 -1.67316 0
-744.655 -1.69014 0
-743.011 -1.70807 0
-741.364 -1.72759 0
-739.719 -1.74944 0
-738.074 -1.77575 0
-736.431 -1.79996 0
-734.79 -1.82665 0
-733.147 -1.85471 0
-731.503 -1.88522 0
-729.862 -1.91736 0
-728.22 -1.9477 0
-726.579 -1.98188 0
-724.938 -2.01809 0
-723.297 -2.052 0
-721.658 -2.08881 0
-720.017 -2.12543 0
-718.379 -2.16426 0
-716.741 -2.20518 0
-715.103 -2.24528 0
-713.466 -2.28209 0
-711.832 -2.32365 0
-710.192 -2.36224 0
-708.559 -2.4049 0
-706.922 -2.44736 0
-705.287 -2.48977 0
-703.652 -2.53302 0
-702.017 -2.57257 0
-700.381 -2.61411 0
-698.745 -2.65351 0
-697.111 -2.69595 0
-695.48 -2.73851 0
-693.846 -2.77739 0
-692.213 -2.81491 0
-690.58 -2.8558 0
-688.945 -2.89467 0
-687.315 -2.93336 0
-685.685 -2.96885 0
-684.052 -3.00886 0
-682.421 -3.04737 0
-680.79 -3.08043 0
-679.16 -3.11651 0
-677.53 -3.15166 0
-675.898 -3.18695 0
-674.269 -3.22199 0
-672.641 -3.25537 0
-671.01 -3.28832 0
-669.379 -3.31615 0
-667.75 -3.34857 0
-666.123 -3.37614 0
-664.493 -3.40343 0
-662.862 -3.42967 0
-661.236 -3.45975 0
-659.605 -3.48204 0
-657.975 -3.51025 0
-656.349 -3.53065 0
-654.721 -3.55337 0
-653.092 -3.57229 0
-651.466 -3.59332 0
-649.838 -3.61041 0
-648.21 -3.62829 0
-646.582 -3.64147 0
-644.956 -3.65983 0
-643.33 -3.67594 0
-641.698 -3.69246 0
-640.069 -3.70581 0
-638.441 -3.71448 0
-636.816 -3.72476 0
-635.186 -3.73002 0
-633.555 -3.73964 0
-631.926 -3.74807 0
-630.298 -3.75625 0
-628.667 -3.7641 0
-627.039 -3.76671 0
-625.414 -3.76852 0
-623.783 -3.77516 0
-622.153 -3.77828 0
-620.527 -3.7806 0
-618.896 -3.78014 0
-617.267 -3.77908 0
-615.638 -3.77788 0
-614.008 -3.77361 0
-612.378 -3.77275 0
-610.748 -3.76708 0
-609.117 -3.76157 0
-607.489 -3.75876 0
-605.858 -3.75384 0
-604.228 -3.74689 0
-602.599 -3.73911 0
-600.967 -3.73262 0
-599.338 -3.72334 0
-597.705 -3.71837 0
-596.075 -3.70891 0
-594.442 -3.70075 0
-592.808 -3.68943 0
-591.177 -3.68081 0
-589.547 -3.67428 0
-587.916 -3.66018 0
-586.285 -3.65054 0
-584.654 -3.63905 0
-583.021 -3.62721 0
-581.388 -3.61748 0
-579.756 -3.60339 0
-578.125 -3.58982 0
-576.492 -3.57546 0
-574.858 -3.56671 0
-573.225 -3.55268 0
-571.593 -3.53411 0
-569.958 -3.52168 0
-568.326 -3.50848 0
-566.693 -3.49439 0
-565.058 -3.48258 0
-563.426 -3.47249 0
-561.789 -3.45823 0
-560.156 -3.44276 0
-558.52 -3.43135 0
-556.885 -3.42003 0
-555.253 -3.40672 0
-553.621 -3.39448 0
-551.987 -3.38302 0
-550.353 -3.36773 0
-548.719 -3.35445 0
-547.084 -3.33974 0
-545.451 -3.32757 0
-543.817 -3.31689 0
-542.182 -3.30687 0
-540.546 -3.29332 0
-538.911 -3.28114 0
-537.274 -3.26867 0
-535.64 -3.25805 0
-534.008 -3.24523 0
-532.372 -3.23512 0
-530.736 -3.22688 0
-529.102 -3.21728 0
-527.466 -3.21297 0
-525.831 -3.1978 0
-524.197 -3.18754 0
-522.564 -3.17829 0
-520.926 -3.17387 0
-519.292 -3.1623 0
-517.659 -3.15373 0
-516.025 -3.14404 0
-514.392 -3.13848 0
-512.756 -3.13367 0
-511.119 -3.12428 0
-509.483 -3.11908 0
-507.847 -3.11249 0
-506.211 -3.10365 0
-504.576 -3.10027 0
-502.942 -3.09591 0
-501.311 -3.09138 0
-499.673 -3.08652 0
-498.038 -3.08122 0
-496.401 -3.07494 0
-494.768 -3.07344 0
-493.13 -3.06912 0
-491.495 -3.06667 0
-489.86 -3.06234 0
-488.226 -3.06109 0
-486.59 -3.06035 0
-484.955 -3.05641 0
-483.321 -3.05528 0
-481.684 -3.05304 0
-480.049 -3.05231 0
-478.414 -3.05369 0
-476.779 -3.05254 0
-475.145 -3.05405 0
-473.511 -3.0525 0
-471.877 -3.04946 0
-470.241 -3.05169 0
-468.605 -3.05067 0
-466.971 -3.05056 0
-465.337 -3.05345 0
-463.703 -3.05817 0
-462.069 -3.05618 0
-460.437 -3.06396 0
-458.803 -3.06546 0
-457.167 -3.06867 0
-455.534 -3.07027 0
-453.897 -3.07301 0
-452.261 -3.07816 0
-450.628 -3.08492 0
-448.991 -3.08648 0
-447.358 -3.09149 0
-445.723 -3.09407 0
-444.09 -3.09579 0
-442.453 -3.09944 0
-440.82 -3.1032 0
-439.187 -3.11055 0
-437.553 -3.11195 0
-435.92 -3.11288 0
-434.288 -3.11619 0
-432.654 -3.12113 0
-431.021 -3.12867 0
-429.386 -3.12985 0
-427.751 -3.13366 0
-426.12 -3.1376 0
-424.486 -3.13967 0
-422.852 -3.14537 0
-421.221 -3.14877 0
-419.589 -3.15582 0
-417.952 -3.16098 0
-416.32 -3.16567 0
-414.686 -3.16793 0
-413.052 -3.17405 0
-411.415 -3.18092 0
-409.782 -3.18265 0
-408.15 -3.18739 0
-406.517 -3.18921 0
-404.883 -3.19662 0
-403.247 -3.20204 0
-401.616 -3.2078 0
-399.98 -3.20868 0
-398.349 -3.21073 0
-396.716 -3.21205 0
-395.082 -3.21698 0
-393.448 -3.22394 0
-391.817 -3.22752 0
-390.181 -3.22755 0
-388.55 -3.23106 0
-386.915 -3.23641 0
-385.281 -3.23739 0
-383.648 -3.24014 0
-382.015 -3.24861 0
-380.382 -3.25107 0
-378.751 -3.2544 0
-377.116 -3.26036 0
-375.486 -3.26088 0
-373.853 -3.26298 0
-372.219 -3.26507 0
-370.586 -3.27014 0
-368.953 -3.2776 0
-367.321 -3.27673 0
-365.689 -3.27762 0
-364.056 -3.27985 0
-362.42 -3.27829 0
-360.786 -3.28003 0
-359.153 -3.28113 0
-357.523 -3.28644 0
-355.891 -3.29328 0
-354.257 -3.29234 0
-352.625 -3.29274 0
-350.993 -3.29351 0
-349.36 -3.29753 0
-347.731 -3.29867 0
-346.098 -3.29926 0
-344.466 -3.3031 0
-342.829 -3.29655 0
-341.201 -3.29726 0
-339.57 -3.30426 0
-337.936 -3.30385 0
-336.301 -3.30535 0
-334.671 -3.30644 0
-333.039 -3.30792 0
-331.407 -3.30963 0
-329.775 -3.30898 0
-328.142 -3.30792 0
-326.509 -3.30842 0
-324.876 -3.30602 0
-323.242 -3.31255 0
-321.608 -3.31507 0
-319.973 -3.31083 0
-318.342 -3.3086 0
-316.711 -3.30827 0
-315.082 -3.31021 0
-313.449 -3.31123 0
-311.82 -3.3096 0
-310.188 -3.31249 0
-308.554 -3.31013 0
-306.92 -3.30952 0
-305.288 -3.30851 0
-303.654 -3.30516 0
-302.022 -3.30363 0
-300.389 -3.30139 0
-298.752 -3.29892 0
-297.123 -3.2996 0
-295.493 -3.29458 0
-293.858 -3.29698 0
-292.224 -3.29858 0
-290.594 -3.29761 0
-288.961 -3.29518 0
-287.328 -3.29249 0
-285.696 -3.29127 0
-284.062 -3.29379 0
-282.43 -3.29431 0
-280.797 -3.29327 0
-279.163 -3.29072 0
-277.532 -3.28462 0
-275.897 -3.28232 0
-274.265 -3.28116 0
-272.635 -3.28381 0
-271.001 -3.28493 0
-269.368 -3.28258 0
-267.734 -3.27903 0
-266.1 -3.27484 0
-264.47 -3.28117 0
-262.838 -3.2795 0
-261.206 -3.27878 0
-259.573 -3.27465 0
-257.942 -3.27074 0
-256.309 -3.27129 0
-254.673 -3.27274 0
-253.041 -3.26898 0
-251.408 -3.26413 0
-249.777 -3.2648 0
-248.144 -3.26031 0
-246.511 -3.2611 0
-244.881 -3.25799 0
-243.248 -3.25517 0
-241.615 -3.25755 0
-239.976 -3.25624 0
-238.342 -3.25336 0
-236.708 -3.25019 0
-235.078 -3.24978 0
-233.445 -3.25005 0
-231.812 -3.24948 0
-230.178 -3.25098 0
-228.543 -3.24636 0
-226.911 -3.24505 0
-225.277 -3.24327 0
-223.642 -3.24373 0
-222.008 -3.2441 0
-220.376 -3.23437 0
-218.747 -3.23381 0
-217.115 -3.23461 0
-215.483 -3.23687 0
-213.85 -3.23434 0
-212.215 -3.23487 0
-210.582 -3.23407 0
-208.947 -3.23351 0
-207.313 -3.23023 0
-205.68 -3.22713 0
-204.052 -3.23082 0
-202.418 -3.22662 0
-200.785 -3.22245 0
-199.15 -3.2212 0
-197.519 -3.22122 0
-195.882 -3.22065 0
-194.248 -3.2259 0
-192.615 -3.22107 0
-190.984 -3.22041 0
-189.35 -3.22193 0
-187.723 -3.22471 0
-186.087 -3.21973 0
-184.459 -3.22273 0
-182.828 -3.22344 0
-181.192 -3.22022 0
-179.558 -3.22376 0
-177.926 -3.2194 0
-176.295 -3.21834 0
-174.662 -3.21519 0
-173.029 -3.21645 0
-171.395 -3.21838 0
-169.766 -3.21915 0
-168.131 -3.21721 0
-166.504 -3.22108 0
-164.867 -3.21831 0
-163.232 -3.21624 0
-161.6 -3.21826 0
-159.965 -3.21614 0
-158.335 -3.21428 0
-156.704 -3.21549 0
-155.069 -3.2144 0
-153.437 -3.21048 0
-151.803 -3.21164 0
-150.169 -3.21144 0
-148.537 -3.21389 0
-146.907 -3.21316 0
-145.277 -3.22123 0
-143.639 -3.21905 0
-142.005 -3.2172 0
-140.378 -3.22134 0
-138.746 -3.21839 0
-137.116 -3.2192 0
-135.479 -3.21878 0
-133.847 -3.22278 0
-132.215 -3.22139 0
-130.585 -3.22213 0
-128.952 -3.21694 0
-127.318 -3.21355 0
-125.687 -3.22234 0
-124.053 -3.22065 0
-122.418 -3.22275 0
-120.785 -3.22192 0
-119.154 -3.21868 0
-117.521 -3.22731 0
-115.888 -3.23046 0
-114.253 -3.22371 0
-112.622 -3.22308 0
-110.99 -3.22541 0
-109.358 -3.23175 0
-107.726 -3.23085 0
-106.1 -3.22622 0
-104.468 -3.23178 0
-102.83 -3.23299 0
-101.198 -3.23339 0
-99.5657 -3.23426 0
-97.9334 -3.23236 0
-96.3006 -3.23278 0
-94.6662 -3.23183 0
-93.0335 -3.22768 0
-91.4057 -3.22943 0
-89.7758 -3.22979 0
-88.1437 -3.22907 0
-86.5098 -3.22775 0
-84.8779 -3.22737 0
-83.2437 -3.22698 0
-81.6113 -3.23637 0
-79.9781 -3.23545 0
-78.347 -3.23789 0
-76.7135 -3.23692 0
-75.0836 -3.23557 0
-73.451 -3.23348 0
-71.8178 -3.23324 0
-70.1825 -3.2353 0
-68.5517 -3.2415 0
-66.9222 -3.23961 0
-65.2947 -3.24058 0
-63.6645 -3.2387 0
-62.0269 -3.23565 0
-60.3922 -3.23198 0
-58.7583 -3.23589 0
-57.1276 -3.23652 0
-55.4988 -3.23886 0
-53.8617 -3.23885 0
-52.2286 -3.23985 0
-50.5951 -3.24142 0
-48.968 -3.24277 0
-47.3363 -3.24363 0
-45.702 -3.24189 0
-44.0709 -3.24003 0
-42.4374 -3.23975 0
-40.8051 -3.24081 0
-39.173 -3.23907 0
-37.5404 -3.2372 0
-35.908 -3.23788 0
-34.275 -3.23877 0
-32.6419 -3.23792 0
-31.0128 -3.23928 0
-29.3809 -3.23653 0
-27.7481 -3.23975 0
-26.1138 -3.23728 0
-24.4824 -3.24187 0
-22.8497 -3.24034 0
-21.2159 -3.24046 0
-19.5825 -3.24052 0
-17.9519 -3.23994 0
-16.319 -3.24262 0
-14.6894 -3.24332 0
-13.0545 -3.24274 0
-11.4239 -3.24238 0
-9.79161 -3.24006 0
-8.16068 -3.23806 0
-6.52488 -3.23733 0
-4.89263 -3.24013 0
-3.26212 -3.24147 0
-1.63101 -3.23833 0
0 -3.23734 0
-1102.15 116.065 0
-1102.01 105.063 0
-1102.03 94.4239 0
-1102.01 84.0133 0
-1101.92 73.8658 0
-1101.76 64.0246 0
-1101.51 54.5531 0
-1101.19 45.521 0
-1100.8 36.9839 0
-1100.36 28.9856 0
-1099.87 21.5384 0
-1099.32 14.6795 0
-1098.74 8.38883 0
-1098.18 2.6254 0
-1097.68 -2.69257 0
-1097.23 -7.62466 0
-1096.8 -12.2154 0
-1096.33 -16.4475 0
-1095.82 -20.3099 0
-1095.28 -23.7832 0
-1094.72 -26.866 0
-1094.14 -29.5576 0
-1093.55 -31.8648 0
-1092.95 -33.803 0
-1092.34 -35.3949 0
-1091.71 -36.6595 0
-1091.07 -37.6225 0
-1090.4 -38.3112 0
-1089.71 -38.7472 0
-1088.99 -38.9495 0
-1088.24 -38.948 0
-1087.46 -38.7578 0
-1086.64 -38.3939 0
-1085.78 -37.8703 0
-1084.89 -37.2078 0
-1083.95 -36.4206 0
-1082.98 -35.5222 0
-1081.97 -34.5249 0
-1080.92 -33.4371 0
-1079.83 -32.2783 0
-1078.7 -31.0524 0
-1077.53 -29.7686 0
-1076.33 -28.4348 0
-1075.1 -27.0689 0
-1073.84 -25.6698 0
-1072.54 -24.2471 0
-1071.2 -22.8092 0
-1069.84 -21.3627 0
-1068.45 -19.9112 0
-1067.03 -18.463 0
-1065.58 -17.02 0
-1064.1 -15.5901 0
-1062.61 -14.1737 0
-1061.09 -12.7843 0
-1059.54 -11.4124 0
-1057.98 -10.0672 0
-1056.39 -8.74869 0
-1054.79 -7.46558 0
-1053.17 -6.2154 0
-1051.53 -5.00389 0
-1049.87 -3.82778 0
-1048.21 -2.69214 0
-1046.52 -1.59766 0
-1044.83 -0.545005 0
-1043.12 0.467174 0
-1041.4 1.42981 0
-1039.67 2.3526 0
-1037.93 3.22772 0
-1036.19 4.05551 0
-1034.44 4.83932 0
-1032.68 5.57943 0
-1030.91 6.27137 0
-1029.14 6.91949 0
-1027.36 7.52336 0
-1025.58 8.08202 0
-1023.8 8.59752 0
-1022.01 9.06624 0
-1020.22 9.49249 0
-1018.43 9.87538 0
-1016.64 10.216 0
-1014.85 10.515 0
-1013.05 10.7744 0
-1011.26 10.9945 0
-1009.47 11.1744 0
-1007.68 11.3169 0
-1005.89 11.4253 0
-1004.1 11.499 0
-1002.32 11.5367 0
-1000.54 11.5425 0
-998.758 11.5167 0
-996.983 11.4601 0
-995.209 11.3739 0
-993.44 11.2602 0
-991.676 11.1199 0
-989.916 10.9553 0
-988.158 10.7637 0
-986.407 10.5527 0
-984.658 10.3155 0
-982.917 10.0628 0
-981.18 9.78976 0
-979.448 9.49665 0
-977.721 9.18855 0
-975.999 8.86593 0
-974.283 8.52897 0
-972.57 8.1793 0