<?xml version="1.0"?>
<VTKFile type="StructuredGrid"  version="0.1" byte_order="LittleEndian" compressor="vtkZLibDataCompressor">
  <StructuredGrid WholeExtent="0 700 0 30 0 0">
    <Piece Extent="0 700 0 30 0 0">
      <PointData Vectors="Velocity">
        <DataArray type="Float32" Name="Velocity" NumberOfComponents="3" format="ascii">
-1086.62 145.954 0
-1086.91 133.794 0
-1087.25 121.76 0
-1087.62 109.936 0
-1088.01 98.3516 0
-1088.43 87.06 0
-1088.92 76.1356 0
-1089.44 65.6557 0
-1090 55.6546 0
-1090.56 46.1653 0
-1091.13 37.2015 0
-1091.68 28.7905 0
-1092.2 20.9371 0
-1092.71 13.6755 0
-1093.14 7.02092 0
-1093.4 0.873984 0
-1093.63 -4.94993 0
-1093.86 -10.4595 0
-1094.11 -15.5783 0
-1094.36 -20.301 0
-1094.58 -24.6553 0
-1094.79 -28.6174 0
-1094.98 -32.1886 0
-1095.15 -35.3668 0
-1095.29 -38.189 0
-1095.4 -40.6443 0
-1095.45 -42.7579 0
-1095.46 -44.5467 0
-1095.41 -46.03 0
-1095.31 -47.2347 0
-1095.14 -48.1755 0
-1094.93 -48.8655 0
-1094.64 -49.3337 0
-1094.28 -49.5902 0
-1093.87 -49.6502 0
-1093.4 -49.5287 0
-1092.86 -49.2286 0
-1092.26 -48.7791 0
-1091.6 -48.1884 0
-1090.88 -47.4596 0
-1090.11 -46.6167 0
-1089.28 -45.6667 0
-1088.39 -44.614 0
-1087.44 -43.479 0
-1086.44 -42.2626 0
-1085.39 -40.9746 0
-1084.29 -39.6283 0
-1083.14 -38.2286 0
-1081.94 -36.7872 0
-1080.7 -35.3072 0
-1079.41 -33.7934 0
-1078.09 -32.2542 0
-1076.73 -30.7006 0
-1075.33 -29.1268 0
-1073.89 -27.5471 0
-1072.41 -25.9691 0
-1070.9 -24.3886 0
-1069.37 -22.8185 0
-1067.8 -21.2544 0
-1066.2 -19.7048 0
-1064.58 -18.1725 0
-1062.93 -16.66 0
-1061.26 -15.1693 0
-1059.56 -13.7066 0
-1057.84 -12.2718 0
-1056.11 -10.8679 0
-1054.35 -9.49411 0
-1052.58 -8.16014 0
-1050.79 -6.85644 0
-1048.99 -5.59708 0
-1047.17 -4.3681 0
-1045.34 -3.18074 0
-1043.5 -2.03344 0
-1041.64 -0.933142 0
-1039.78 0.127603 0
-1037.91 1.14478 0
-1036.03 2.11999 0
-1034.14 3.04761 0
-1032.25 3.9359 0
-1030.35 4.77403 0
-1028.45 5.57032 0
-1026.54 6.32099 0
-1024.63 7.02819 0
-1022.72 7.6922 0
-1020.8 8.3071 0
-1018.89 8.88264 0
-1016.97 9.41115 0
-1015.06 9.89806 0
-1013.14 10.3446 0
-1011.23 10.7454 0
-1009.31 11.1068 0
-1007.4 11.4235 0
-1005.49 11.7046 0
-1003.59 11.9453 0
-1001.69 12.1458 0
-999.79 12.3086 0
-997.898 12.4328 0
-996.009 12.528 0
-994.124 12.5834 0
-992.245 12.6076 0
-990.37 12.5984 0
-988.502 12.5563 0
-986.639 12.485 0
-984.78 12.3819 0
-982.93 12.2529 0
-981.086 12.0955 0
-979.248 11.9115 0
-977.418 11.7047 0
-975.594 11.4708 0
-973.777 11.2127 0
-971.97 10.9324 0
-970.17 10.6361 0
-968.375 10.3164 0
-966.587 9.98145 0
-964.808 9.62907 0
-963.034 9.25949 0
-961.272 8.87678 0
-959.516 8.47916 0
-957.768 8.06555 0
-956.024 7.64483 0
-954.29 7.21051 0
-952.56 6.77139 0
-950.838 6.32307 0
-949.124 5.86422 0
-947.418 5.40075 0
-945.717 4.93162 0
-944.019 4.46463 0
-942.334 3.98768 0
-940.65 3.51386 0
-938.974 3.03292 0
-937.304 2.55456 0
-935.641 2.07384 0
-933.983 1.59582 0
-932.328 1.11965 0
-930.679 0.644042 0
-929.039 0.177342 0
-927.4 -0.28491 0
-925.767 -0.750702 0
-924.138 -1.20498 0
-922.514 -1.65216 0
-920.892 -2.09499 0
-919.278 -2.52917 0
-917.665 -2.95829 0
-916.055 -3.37832 0
-914.45 -3.79337 0
-912.849 -4.19338 0
-911.252 -4.58713 0
-909.656 -4.96931 0
-908.063 -5.34023 0
-906.471 -5.70093 0
-904.882 -6.054 0
-903.296 -6.39008 0
-901.711 -6.71824 0
-900.129 -7.03446 0
-898.549 -7.33783 0
-896.968 -7.63094 0
-895.389 -7.91215 0
-893.814 -8.17618 0
-892.237 -8.43344 0
-890.66 -8.67727 0
-889.084 -8.90841 0
-887.511 -9.12541 0
-885.939 -9.32926 0
-884.364 -9.52459 0
-882.79 -9.70332 0
-881.215 -9.87254 0
-879.641 -10.032 0
-878.064 -10.1741 0
-876.487 -10.308 0
-874.913 -10.4291 0
-873.337 -10.5406 0
-871.756 -10.6358 0
-870.177 -10.723 0
-868.597 -10.7989 0
-867.016 -10.8647 0
-865.435 -10.9172 0
-863.854 -10.9629 0
-862.271 -10.9925 0
-860.681 -11.0163 0
-859.095 -11.0303 0
-857.509 -11.0358 0
-855.919 -11.0291 0
-854.328 -11.014 0
-852.735 -10.9918 0
-851.143 -10.9621 0
-849.546 -10.9181 0
-847.949 -10.8729 0
-846.347 -10.8154 0
-844.746 -10.7551 0
-843.142 -10.6886 0
-841.535 -10.614 0
-839.931 -10.5313 0
-838.322 -10.4417 0
-836.71 -10.3494 0
-835.099 -10.2508 0
-833.487 -10.1495 0
-831.867 -10.0419 0
-830.252 -9.93109 0
-828.633 -9.8152 0
-827.012 -9.69318 0
-825.386 -9.57069 0
-823.759 -9.44175 0
-822.133 -9.31492 0
-820.507 -9.17656 0
-818.876 -9.04106 0
-817.244 -8.90143 0
-815.612 -8.76184 0
-813.977 -8.62213 0
-812.339 -8.47926 0
-810.7 -8.33047 0
-809.057 -8.18428 0
-807.42 -8.04327 0
-805.773 -7.89709 0
-804.129 -7.74909 0
-802.483 -7.60125 0
-800.835 -7.45726 0
-799.187 -7.30671 0
-797.535 -7.16137 0
-795.88 -7.0141 0
-794.227 -6.86514 0
-792.573 -6.72738 0
-790.917 -6.58399 0
-789.261 -6.44712 0
-787.601 -6.30537 0
-785.943 -6.16949 0
-784.281 -6.0335 0
-782.619 -5.90286 0
-780.96 -5.76899 0
-779.296 -5.6428 0
-777.632 -5.51432 0
-775.966 -5.39424 0
-774.301 -5.27466 0
-772.634 -5.15494 0
-770.967 -5.04084 0
-769.3 -4.92776 0
-767.631 -4.81904 0
-765.962 -4.71292 0
-764.29 -4.61266 0
-762.622 -4.51244 0
-760.95 -4.41455 0
-759.281 -4.32251 0
-757.611 -4.22785 0
-755.937 -4.14423 0
-754.268 -4.05829 0
-752.597 -3.98296 0
-750.923 -3.90334 0
-749.249 -3.83153 0
-747.577 -3.76135 0
-745.904 -3.69798 0
-744.231 -3.63437 0
-742.557 -3.57597 0
-740.887 -3.52289 0
-739.215 -3.47149 0
-737.546 -3.41907 0
-735.874 -3.37344 0
-734.201 -3.33509 0
-732.526 -3.2972 0
-730.853 -3.26267 0
-729.181 -3.22762 0
-727.509 -3.20021 0
-725.837 -3.17335 0
-724.167 -3.15652 0
-722.497 -3.13556 0
-720.829 -3.11795 0
-719.162 -3.10561 0
-717.492 -3.09321 0
-715.824 -3.08407 0
-714.153 -3.08227 0
-712.483 -3.08157 0
-710.815 -3.08244 0
-709.148 -3.08382 0
-707.48 -3.09014 0
-705.813 -3.10084 0
-704.147 -3.11033 0
-702.48 -3.12328 0
-700.815 -3.14122 0
-699.151 -3.15786 0
-697.487 -3.17916 0
-695.824 -3.1983 0
-694.161 -3.22192 0
-692.496 -3.2483 0
-690.835 -3.27144 0
-689.175 -3.30085 0
-687.512 -3.33001 0
-685.851 -3.36297 0
-684.187 -3.39416 0
-682.528 -3.43017 0
-680.87 -3.46451 0
-679.208 -3.50513 0
-677.554 -3.54401 0
-675.897 -3.58463 0
-674.238 -3.6236 0
-672.581 -3.66362 0
-670.923 -3.70845 0
-669.269 -3.75079 0
-667.611 -3.79773 0
-665.956 -3.84575 0
-664.305 -3.8906 0
-662.653 -3.93616 0
-661 -3.98286 0
-659.346 -4.03003 0
-657.69 -4.07816 0
-656.039 -4.12644 0
-654.388 -4.17575 0
-652.737 -4.22224 0
-651.084 -4.27032 0
-649.432 -4.31994 0
-647.784 -4.36421 0
-646.133 -4.40839 0
-644.485 -4.45719 0
-642.836 -4.50596 0
-641.189 -4.54951 0
-639.54 -4.59647 0
-637.892 -4.6451 0
-636.247 -4.69141 0
-634.599 -4.73641 0
-632.949 -4.78148 0
-631.301 -4.8228 0
-629.656 -4.86626 0
-628.008 -4.91001 0
-626.363 -4.95744 0
-624.721 -5.00081 0
-623.078 -5.04423 0
-621.432 -5.07815 0
-619.789 -5.11884 0
-618.144 -5.15589 0
-616.5 -5.19476 0
-614.856 -5.22777 0
-613.211 -5.26635 0
-611.569 -5.30212 0
-609.924 -5.33358 0
-608.277 -5.36585 0
-606.638 -5.39783 0
-604.997 -5.42937 0
-603.352 -5.4601 0
-601.71 -5.49089 0
-600.064 -5.5193 0
-598.422 -5.54542 0
-596.777 -5.56988 0
-595.134 -5.59502 0
-593.49 -5.61986 0
-591.848 -5.64367 0
-590.206 -5.66433 0
-588.561 -5.68536 0
-586.922 -5.70147 0
-585.279 -5.72053 0
-583.633 -5.73745 0
-581.99 -5.75544 0
-580.346 -5.76708 0
-578.705 -5.78375 0
-577.06 -5.79578 0
-575.416 -5.80874 0
-573.777 -5.8189 0
-572.131 -5.82585 0
-570.487 -5.83685 0
-568.841 -5.84289 0
-567.197 -5.85876 0
-565.555 -5.86108 0
-563.911 -5.86053 0
-562.267 -5.86754 0
-560.625 -5.87276 0
-558.98 -5.87173 0
-557.336 -5.8746 0
-555.695 -5.87754 0
-554.047 -5.87767 0
-552.403 -5.87684 0
-550.759 -5.87351 0
-549.116 -5.86517 0
-547.468 -5.86628 0
-545.822 -5.86202 0
-544.18 -5.85385 0
-542.534 -5.85388 0
-540.894 -5.84397 0
-539.247 -5.83544 0
-537.6 -5.8257 0
-535.952 -5.82192 0
-534.306 -5.8092 0
-532.66 -5.7996 0
-531.014 -5.78863 0
-529.369 -5.78291 0
-527.722 -5.76976 0
-526.075 -5.75417 0
-524.43 -5.7465 0
-522.783 -5.73544 0
-521.14 -5.7225 0
-519.492 -5.70396 0
-517.843 -5.69149 0
-516.195 -5.67987 0
-514.546 -5.66482 0
-512.9 -5.64894 0
-511.253 -5.64194 0
-509.606 -5.61818 0
-507.956 -5.6032 0
-506.307 -5.59101 0
-504.661 -5.57743 0
-503.013 -5.55321 0
-501.366 -5.53362 0
-499.714 -5.51607 0
-498.068 -5.50436 0
-496.42 -5.49206 0
-494.769 -5.4739 0
-493.119 -5.45841 0
-491.473 -5.44114 0
-489.821 -5.42237 0
-488.172 -5.40954 0
-486.524 -5.39354 0
-484.877 -5.37702 0
-483.23 -5.36129 0
-481.579 -5.3432 0
-479.931 -5.32701 0
-478.282 -5.31668 0
-476.635 -5.29509 0
-474.986 -5.27528 0
-473.341 -5.26146 0
-471.691 -5.23867 0
-470.04 -5.22767 0
-468.385 -5.21571 0
-466.731 -5.20092 0
-465.085 -5.18111 0
-463.432 -5.16473 0
-461.78 -5.15366 0
-460.128 -5.1426 0
-458.473 -5.12783 0
-456.824 -5.1127 0
-455.176 -5.09561 0
-453.522 -5.08687 0
-451.871 -5.07461 0
-450.217 -5.05819 0
-448.57 -5.04334 0
-446.919 -5.03048 0
-445.273 -5.02288 0
-443.619 -5.00954 0
-441.968 -5.00016 0
-440.318 -4.98772 0
-438.664 -4.97258 0
-437.01 -4.96397 0
-435.36 -4.95791 0
-433.71 -4.94512 0
-432.056 -4.93557 0
-430.406 -4.92876 0
-428.759 -4.91872 0
-427.103 -4.90853 0
-425.446 -4.89974 0
-423.797 -4.89471 0
-422.143 -4.8867 0
-420.494 -4.87654 0
-418.841 -4.87098 0
-417.19 -4.86168 0
-415.54 -4.85862 0
-413.888 -4.84963 0
-412.241 -4.84733 0
-410.585 -4.84463 0
-408.933 -4.83583 0
-407.28 -4.82662 0
-405.632 -4.82147 0
-403.979 -4.81556 0
-402.325 -4.81156 0
-400.679 -4.8131 0
-399.028 -4.81117 0
-397.372 -4.80837 0
-395.723 -4.80644 0
-394.07 -4.79786 0
-392.42 -4.79477 0
-390.771 -4.78918 0
-389.12 -4.78674 0
-387.47 -4.78679 0
-385.817 -4.78325 0
-384.169 -4.78758 0
-382.516 -4.78241 0
-380.864 -4.7827 0
-379.213 -4.77324 0
-377.558 -4.78283 0
-375.908 -4.77661 0
-374.256 -4.77968 0
-372.608 -4.78824 0
-370.955 -4.78079 0
-369.304 -4.78716 0
-367.657 -4.78697 0
-366.004 -4.79222 0
-364.352 -4.79211 0
-362.706 -4.79854 0
-361.055 -4.79907 0
-359.404 -4.80448 0
-357.753 -4.79994 0
-356.098 -4.803 0
-354.452 -4.8034 0
-352.801 -4.81369 0
-351.155 -4.81641 0
-349.504 -4.81631 0
-347.857 -4.81198 0
-346.202 -4.81769 0
-344.549 -4.82576 0
-342.9 -4.83278 0
-341.25 -4.83379 0
-339.602 -4.83358 0
-337.952 -4.83887 0
-336.305 -4.83766 0
-334.657 -4.84208 0
-333.007 -4.854 0
-331.355 -4.8544 0
-329.704 -4.85126 0
-328.049 -4.85574 0
-326.401 -4.85581 0
-324.753 -4.86384 0
-323.102 -4.86711 0
-321.451 -4.87436 0
-319.806 -4.88016 0
-318.155 -4.8902 0
-316.507 -4.88686 0
-314.856 -4.89434 0
-313.207 -4.89668 0
-311.556 -4.90604 0
-309.908 -4.90561 0
-308.265 -4.9162 0
-306.614 -4.9169 0
-304.962 -4.92393 0
-303.309 -4.9202 0
-301.665 -4.92994 0
-300.015 -4.93178 0
-298.367 -4.94059 0
-296.725 -4.94421 0
-295.073 -4.94923 0
-293.422 -4.94941 0
-291.776 -4.95416 0
-290.128 -4.95933 0
-288.484 -4.95841 0
-286.834 -4.96716 0
-285.186 -4.97598 0
-283.533 -4.97742 0
-281.888 -4.97838 0
-280.24 -4.97986 0
-278.591 -4.97981 0
-276.937 -4.98941 0
-275.293 -4.9871 0
-273.641 -4.9914 0
-271.997 -4.99719 0
-270.342 -4.99809 0
-268.693 -4.99474 0
-267.046 -5.00077 0
-265.393 -5.00426 0
-263.746 -5.00362 0
-262.102 -5.00785 0
-260.45 -5.01523 0
-258.802 -5.01909 0
-257.151 -5.01939 0
-255.503 -5.02231 0
-253.864 -5.02274 0
-252.217 -5.03027 0
-250.566 -5.02591 0
-248.912 -5.02644 0
-247.262 -5.02722 0
-245.617 -5.02788 0
-243.966 -5.02705 0
-242.319 -5.02562 0
-240.671 -5.02625 0
-239.022 -5.02861 0
-237.374 -5.029 0
-235.72 -5.0313 0
-234.074 -5.03705 0
-232.427 -5.03201 0
-230.782 -5.02907 0
-229.131 -5.03088 0
-227.484 -5.03544 0
-225.838 -5.03445 0
-224.191 -5.03693 0
-222.543 -5.02748 0
-220.892 -5.02417 0
-219.24 -5.02323 0
-217.589 -5.03143 0
-215.942 -5.03099 0
-214.298 -5.03376 0
-212.649 -5.03157 0
-210.996 -5.0388 0
-209.35 -5.04113 0
-207.696 -5.03922 0
-206.052 -5.04024 0
-204.406 -5.03837 0
-202.756 -5.03323 0
-201.108 -5.03933 0
-199.457 -5.03126 0
-197.808 -5.03026 0
-196.164 -5.03222 0
-194.516 -5.02862 0
-192.868 -5.02994 0
-191.221 -5.0239 0
-189.563 -5.02955 0
-187.921 -5.02813 0
-186.275 -5.03126 0
-184.625 -5.02799 0
-182.981 -5.024 0
-181.327 -5.02617 0
-179.683 -5.02348 0
-178.032 -5.02337 0
-176.391 -5.02419 0
-174.742 -5.01863 0
-173.089 -5.01878 0
-171.438 -5.01103 0
-169.792 -5.00584 0
-168.146 -5.00827 0
-166.494 -5.01162 0
-164.847 -5.00658 0
-163.197 -4.99933 0
-161.546 -4.99863 0
-159.9 -4.99671 0
-158.256 -4.99584 0
-156.61 -4.99195 0
-154.96 -4.98923 0
-153.311 -4.99348 0
-151.668 -4.98711 0
-150.017 -4.98613 0
-148.368 -4.97998 0
-146.718 -4.97544 0
-145.069 -4.97442 0
-143.418 -4.97911 0
-141.771 -4.97384 0
-140.118 -4.97644 0
-138.471 -4.96552 0
-136.826 -4.96451 0
-135.185 -4.96488 0
-133.53 -4.96701 0
-131.88 -4.9624 0
-130.22 -4.96501 0
-128.579 -4.96094 0
-126.927 -4.9561 0
-125.278 -4.9622 0
-123.638 -4.95899 0
-121.989 -4.95882 0
-120.341 -4.95354 0
-118.69 -4.94775 0
-117.036 -4.95198 0
-115.386 -4.94786 0
-113.742 -4.94963 0
-112.093 -4.94302 0
-110.445 -4.94737 0
-108.792 -4.94081 0
-107.145 -4.93545 0
-105.494 -4.93233 0
-103.845 -4.92933 0
-102.204 -4.92842 0
-100.548 -4.9276 0
-98.8955 -4.92797 0
-97.2448 -4.93043 0
-95.6014 -4.92785 0
-93.9609 -4.92543 0
-92.3055 -4.92468 0
-90.658 -4.9249 0
-89.0097 -4.92301 0
-87.3639 -4.92483 0
-85.7121 -4.91949 0
-84.0679 -4.91944 0
-82.4219 -4.91245 0
-80.7702 -4.9174 0
-79.1238 -4.91414 0
-77.475 -4.91089 0
-75.8276 -4.91414 0
-74.18 -4.9111 0
-72.5302 -4.90832 0
-70.8794 -4.90885 0
-69.2305 -4.90849 0
-67.5844 -4.90386 0
-65.9358 -4.90431 0
-64.2906 -4.90503 0
-62.6335 -4.90913 0
-60.9874 -4.91167 0
-59.3349 -4.90926 0
-57.6935 -4.90028 0
-56.0425 -4.89943 0
-54.3951 -4.90068 0
-52.745 -4.90153 0
-51.0935 -4.89984 0
-49.4501 -4.89282 0
-47.8 -4.88601 0
-46.155 -4.89101 0
-44.5057 -4.88806 0
-42.8584 -4.88569 0
-41.209 -4.88317 0
-39.557 -4.88302 0
-37.9132 -4.88087 0
-36.2598 -4.88288 0
-34.6176 -4.88167 0
-32.9705 -4.87883 0
-31.3244 -4.8771 0
-29.6702 -4.87949 0
-28.0236 -4.88104 0
-26.373 -4.87653 0
-24.7281 -4.88067 0
-23.0731 -4.8789 0
-21.4256 -4.88169 0
-19.7781 -4.8791 0
-18.1387 -4.8764 0
-16.493 -4.87996 0
-14.8382 -4.87142 0
-13.1939 -4.87874 0
-11.5468 -4.87244 0
-9.89521 -4.86923 0
-8.24358 -4.86926 0
-6.5943 -4.87181 0
-4.95116 -4.87235 0
-3.30095 -4.86793 0
-1.65121 -4.86446 0
0 -4.86907 0
-1098.78 146.276 0
-1098.96 134.07 0
-1099.14 122.01 0
-1099.31 110.169 0
-1099.46 98.5657 0
-1099.58 87.2439 0
-1099.66 76.2764 0
-1099.72 65.7535 0
-1099.77 55.7207 0
-1099.81 46.203 0
-1099.82 37.2272 0
-1099.8 28.8094 0
-1099.73 20.9599 0
-1099.6 13.7137 0
-1099.45 7.08734 0
-1099.37 0.944412 0
-1099.3 -4.88186 0
-1099.22 -10.3836 0
-1099.08 -15.5153 0
-1098.93 -20.2473 0
-1098.78 -24.5936 0
-1098.6 -28.5522 0
-1098.41 -32.1184 0
-1098.21 -35.2912 0
-1097.98 -38.0846 0
-1097.73 -40.5173 0
-1097.45 -42.6015 0
-1097.14 -44.3542 0
-1096.79 -45.799 0
-1096.41 -46.962 0
-1095.99 -47.8521 0
-1095.52 -48.4952 0
-1095.02 -48.9094 0
-1094.46 -49.1109 0
-1093.86 -49.1167 0
-1093.2 -48.9396 0
-1092.5 -48.5878 0
-1091.75 -48.0862 0
-1090.95 -47.4377 0
-1090.11 -46.6624 0
-1089.22 -45.7661 0
-1088.29 -44.7613 0
-1087.3 -43.6595 0
-1086.27 -42.4726 0
-1085.2 -41.2084 0
-1084.08 -39.8764 0
-1082.93 -38.4831 0
-1081.73 -37.0406 0
-1080.49 -35.5535 0
-1079.21 -34.0337 0
-1077.91 -32.4823 0
-1076.56 -30.9046 0
-1075.18 -29.3123 0
-1073.76 -27.706 0
-1072.32 -26.094 0
-1070.84 -24.4817 0
-1069.34 -22.8727 0
-1067.81 -21.2732 0
-1066.26 -19.6829 0
-1064.67 -18.1053 0
-1063.07 -16.5483 0
-1061.44 -15.0119 0
-1059.79 -13.5014 0
-1058.12 -12.0165 0
-1056.44 -10.5623 0
-1054.73 -9.13874 0
-1053.01 -7.7521 0
-1051.27 -6.40011 0
-1049.52 -5.08426 0
-1047.75 -3.80819 0
-1045.98 -2.5678 0
-1044.19 -1.36794 0
-1042.39 -0.210652 0
-1040.57 0.900364 0
-1038.75 1.96783 0
-1036.93 2.99425 0
-1035.09 3.97671 0
-1033.25 4.91334 0
-1031.4 5.80274 0
-1029.54 6.6479 0
-1027.68 7.44731 0
-1025.82 8.20154 0
-1023.96 8.91074 0
-1022.09 9.57834 0
-1020.22 10.1945 0
-1018.34 10.7694 0
-1016.47 11.2982 0
-1014.6 11.7873 0
-1012.73 12.2308 0
-1010.85 12.6317 0
-1008.98 12.9895 0
-1007.11 13.3074 0
-1005.24 13.5837 0
-1003.38 13.8227 0
-1001.51 14.0206 0
-999.649 14.1789 0
-997.79 14.3008 0
-995.936 14.3886 0
-994.086 14.4397 0
-992.238 14.46 0
-990.397 14.445 0
-988.559 14.3988 0
-986.725 14.3209 0
-984.897 14.212 0
-983.075 14.0763 0
-981.258 13.9135 0
-979.446 13.7233 0
-977.64 13.5105 0
-975.84 13.2693 0
-974.047 13.0047 0
-972.259 12.7207 0
-970.477 12.4165 0
-968.703 12.0912 0
-966.931 11.75 0
-965.166 11.3881 0
-963.413 11.013 0
-961.663 10.6225 0
-959.919 10.2163 0
-958.181 9.79901 0
-956.45 9.36971 0
-954.724 8.93214 0
-953.002 8.48445 0
-951.288 8.02891 0
-949.582 7.56546 0
-947.88 7.09389 0
-946.183 6.62001 0
-944.493 6.14523 0
-942.807 5.66434 0
-941.125 5.18218 0
-939.452 4.69838 0
-937.783 4.21375 0
-936.117 3.72962 0
-934.456 3.24578 0
-932.799 2.76352 0
-931.147 2.28522 0
-929.5 1.81136 0
-927.86 1.34514 0
-926.224 0.875772 0
-924.588 0.418684 0
-922.957 -0.0323527 0
-921.329 -0.48037 0
-919.705 -0.918523 0
-918.086 -1.35165 0
-916.472 -1.7751 0
-914.856 -2.18975 0
-913.244 -2.59552 0
-911.635 -2.99185 0
-910.029 -3.37466 0
-908.424 -3.74833 0
-906.825 -4.11303 0
-905.224 -4.46574 0
-903.627 -4.80612 0
-902.032 -5.13599 0
-900.438 -5.45308 0
-898.845 -5.7588 0
-897.253 -6.05226 0
-895.662 -6.33394 0
-894.073 -6.60076 0
-892.486 -6.85695 0
-890.897 -7.10359 0
-889.308 -7.33426 0
-887.723 -7.55208 0
-886.136 -7.75688 0
-884.55 -7.95003 0
-882.963 -8.1293 0
-881.376 -8.29955 0
-879.787 -8.457 0
-878.2 -8.59993 0
-876.615 -8.7347 0
-875.025 -8.85422 0
-873.435 -8.96197 0
-871.848 -9.05954 0
-870.258 -9.14498 0
-868.668 -9.22103 0
-867.075 -9.286 0
-865.484 -9.3379 0
-863.891 -9.37956 0
-862.297 -9.40996 0
-860.702 -9.43104 0
-859.105 -9.44659 0
-857.508 -9.44844 0
-855.908 -9.44292 0
-854.307 -9.42491 0
-852.706 -9.40073 0
-851.105 -9.36899 0
-849.5 -9.32619 0
-847.896 -9.27706 0
-846.29 -9.22052 0
-844.681 -9.1563 0
-843.072 -9.08787 0
-841.46 -9.01045 0
-839.847 -8.92804 0
-838.232 -8.8378 0
-836.616 -8.74456 0
-835.001 -8.6443 0
-833.383 -8.53925 0
-831.762 -8.43041 0
-830.139 -8.31694 0
-828.515 -8.20002 0
-826.89 -8.07704 0
-825.261 -7.95018 0
-823.633 -7.82291 0
-822.003 -7.69109 0
-820.372 -7.55489 0
-818.738 -7.41571 0
-817.105 -7.27524 0
-815.471 -7.133 0
-813.832 -6.99219 0
-812.193 -6.8478 0
-810.555 -6.69976 0
-808.916 -6.5534 0
-807.272 -6.4064 0
-805.628 -6.25872 0
-803.983 -6.11155 0
-802.337 -5.96067 0
-800.688 -5.81096 0
-799.038 -5.66489 0
-797.388 -5.51702 0
-795.737 -5.368 0
-794.086 -5.22226 0
-792.433 -5.08016 0
-790.777 -4.93583 0
-789.12 -4.79487 0
-787.464 -4.65617 0
-785.807 -4.51736 0
-784.149 -4.38327 0
-782.49 -4.2506 0
-780.83 -4.11625 0
-779.17 -3.98598 0
-777.508 -3.86232 0
-775.847 -3.73751 0
-774.182 -3.61861 0
-772.517 -3.49849 0
-770.85 -3.38253 0
-769.189 -3.26914 0
-767.525 -3.15883 0
-765.859 -3.05435 0
-764.193 -2.9533 0
-762.524 -2.85209 0
-760.857 -2.75426 0
-759.189 -2.6614 0
-757.521 -2.5686 0
-755.856 -2.48182 0
-754.188 -2.39699 0
-752.519 -2.31632 0
-750.85 -2.24099 0
-749.181 -2.16795 0
-747.511 -2.09949 0
-745.842 -2.03251 0
-744.172 -1.97257 0
-742.504 -1.91434 0
-740.833 -1.85811 0
-739.164 -1.80666 0
-737.495 -1.75831 0
-735.827 -1.7105 0
-734.159 -1.66871 0
-732.489 -1.63265 0
-730.819 -1.59709 0
-729.152 -1.5643 0
-727.484 -1.5367 0
-725.816 -1.5135 0
-724.148 -1.49346 0
-722.479 -1.47305 0
-720.813 -1.45921 0
-719.147 -1.44251 0
-717.483 -1.43333 0
-715.817 -1.42547 0
-714.148 -1.42118 0
-712.483 -1.42304 0
-710.817 -1.42494 0
-709.153 -1.42759 0
-707.488 -1.43135 0
-705.824 -1.4416 0
-704.159 -1.45475 0
-702.497 -1.46517 0
-700.832 -1.48342 0
-699.169 -1.50077 0
-697.507 -1.52076 0
-695.844 -1.54123 0
-694.182 -1.566 0
-692.523 -1.59212 0
-690.863 -1.61836 0
-689.203 -1.64584 0
-687.543 -1.67759 0
-685.883 -1.71017 0
-684.224 -1.74197 0
-682.565 -1.77897 0
-680.907 -1.81598 0
-679.25 -1.85277 0
-677.592 -1.89387 0
-675.934 -1.93675 0
-674.279 -1.97534 0
-672.624 -2.01579 0
-670.971 -2.06021 0
-669.313 -2.10457 0
-667.658 -2.14943 0
-666.001 -2.19705 0
-664.348 -2.24353 0
-662.698 -2.29001 0
-661.046 -2.33582 0
-659.393 -2.38534 0
-657.743 -2.43256 0
-656.087 -2.48196 0
-654.434 -2.53089 0
-652.783 -2.58034 0
-651.134 -2.62708 0
-649.483 -2.67501 0
-647.833 -2.72372 0
-646.181 -2.76854 0
-644.532 -2.81882 0
-642.883 -2.86382 0
-641.236 -2.90995 0
-639.587 -2.95725 0
-637.939 -3.00526 0
-636.292 -3.04882 0
-634.641 -3.0945 0
-632.994 -3.13773 0
-631.345 -3.18463 0
-629.7 -3.22937 0
-628.054 -3.27185 0
-626.409 -3.31687 0
-624.764 -3.36424 0
-623.115 -3.40345 0
-621.472 -3.44183 0
-619.827 -3.4816 0
-618.182 -3.52038 0
-616.539 -3.55894 0
-614.893 -3.59169 0
-613.249 -3.62691 0
-611.6 -3.66247 0
-609.957 -3.69701 0
-608.312 -3.72967 0
-606.67 -3.76345 0
-605.025 -3.795 0
-603.38 -3.82565 0
-601.737 -3.85241 0
-600.092 -3.88238 0
-598.448 -3.90585 0
-596.802 -3.93387 0
-595.158 -3.95934 0
-593.513 -3.98366 0
-591.872 -4.00872 0
-590.228 -4.02817 0
-588.588 -4.04822 0
-586.942 -4.06317 0
-585.296 -4.08508 0
-583.653 -4.10311 0
-582.009 -4.11829 0
-580.361 -4.13171 0
-578.716 -4.14606 0
-577.072 -4.15832 0
-575.429 -4.17307 0
-573.783 -4.18232 0
-572.14 -4.19182 0
-570.495 -4.19994 0
-568.852 -4.20845 0
-567.206 -4.21844 0
-565.56 -4.22207 0
-563.916 -4.22726 0
-562.27 -4.23079 0
-560.628 -4.23667 0
-558.983 -4.23871 0
-557.339 -4.23841 0
-555.693 -4.23786 0
-554.048 -4.23652 0
-552.405 -4.23773 0
-550.759 -4.23519 0
-549.113 -4.23009 0
-547.469 -4.22904 0
-545.822 -4.22373 0
-544.176 -4.21818 0
-542.531 -4.21395 0
-540.885 -4.20576 0
-539.239 -4.19829 0
-537.593 -4.1882 0
-535.945 -4.17923 0
-534.298 -4.17172 0
-532.652 -4.16088 0
-531.006 -4.15198 0
-529.357 -4.14286 0
-527.708 -4.13041 0
-526.063 -4.11626 0
-524.418 -4.10786 0
-522.772 -4.09557 0
-521.127 -4.08283 0
-519.48 -4.0677 0
-517.829 -4.05113 0
-516.183 -4.03843 0
-514.536 -4.02753 0
-512.889 -4.01229 0
-511.24 -3.99607 0
-509.591 -3.97961 0
-507.944 -3.9625 0
-506.293 -3.94944 0
-504.645 -3.93281 0
-502.995 -3.9172 0
-501.346 -3.89717 0
-499.7 -3.8795 0
-498.053 -3.86235 0
-496.404 -3.84967 0
-494.754 -3.83221 0
-493.106 -3.81641 0
-491.458 -3.80088 0
-489.806 -3.78484 0
-488.16 -3.76815 0
-486.513 -3.75421 0
-484.864 -3.73629 0
-483.216 -3.71969 0
-481.563 -3.70166 0
-479.913 -3.68534 0
-478.265 -3.67057 0
-476.618 -3.65289 0
-474.966 -3.63399 0
-473.319 -3.61881 0
-471.669 -3.59883 0
-470.02 -3.58259 0
-468.37 -3.57157 0
-466.718 -3.55287 0
-465.065 -3.53777 0
-463.415 -3.52008 0
-461.763 -3.51067 0
-460.113 -3.50064 0
-458.463 -3.48545 0
-456.812 -3.46876 0
-455.161 -3.45638 0
-453.508 -3.44166 0
-451.857 -3.42925 0
-450.21 -3.41329 0
-448.559 -3.40159 0
-446.909 -3.38832 0
-445.253 -3.37747 0
-443.603 -3.36721 0
-441.955 -3.35816 0
-440.302 -3.34454 0
-438.647 -3.32977 0
-437.001 -3.3207 0
-435.348 -3.31173 0
-433.698 -3.30385 0
-432.048 -3.29133 0
-430.398 -3.28175 0
-428.743 -3.273 0
-427.091 -3.26379 0
-425.441 -3.25526 0
-423.789 -3.24902 0
-422.138 -3.24027 0
-420.485 -3.23476 0
-418.834 -3.22573 0
-417.181 -3.22027 0
-415.533 -3.21115 0
-413.884 -3.20898 0
-412.232 -3.20266 0
-410.58 -3.19912 0
-408.926 -3.19203 0
-407.273 -3.18227 0
-405.624 -3.17867 0
-403.975 -3.17183 0
-402.324 -3.17327 0
-400.675 -3.16757 0
-399.021 -3.16694 0
-397.373 -3.16229 0
-395.718 -3.15993 0
-394.068 -3.15596 0
-392.418 -3.15259 0
-390.768 -3.15007 0
-389.119 -3.14205 0
-387.468 -3.14031 0
-385.816 -3.14104 0
-384.164 -3.14199 0
-382.513 -3.14043 0
-380.863 -3.13718 0
-379.211 -3.13414 0
-377.559 -3.13537 0
-375.909 -3.13332 0
-374.257 -3.13678 0
-372.607 -3.14216 0
-370.956 -3.14037 0
-369.305 -3.13741 0
-367.655 -3.14461 0
-366.002 -3.14677 0
-364.355 -3.15159 0
-362.704 -3.15375 0
-361.055 -3.15666 0
-359.4 -3.15914 0
-357.753 -3.15773 0
-356.104 -3.16007 0
-354.456 -3.16403 0
-352.804 -3.1669 0
-351.155 -3.17285 0
-349.504 -3.1745 0
-347.852 -3.17375 0
-346.204 -3.175 0
-344.553 -3.1845 0
-342.901 -3.18817 0
-341.254 -3.1903 0
-339.605 -3.19094 0
-337.954 -3.19664 0
-336.306 -3.19704 0
-334.657 -3.20081 0
-333.007 -3.20749 0
-331.354 -3.20858 0
-329.704 -3.20986 0
-328.057 -3.21447 0
-326.408 -3.21313 0
-324.759 -3.22469 0
-323.107 -3.2245 0
-321.457 -3.23328 0
-319.808 -3.23822 0
-318.163 -3.24045 0
-316.516 -3.24398 0
-314.864 -3.24683 0
-313.212 -3.25853 0
-311.563 -3.26224 0
-309.917 -3.26449 0
-308.267 -3.27578 0
-306.616 -3.27584 0
-304.965 -3.27868 0
-303.319 -3.28081 0
-301.671 -3.28941 0
-300.02 -3.29383 0
-298.372 -3.29839 0
-296.724 -3.30226 0
-295.074 -3.30134 0
-293.427 -3.30639 0
-291.777 -3.3158 0
-290.13 -3.32015 0
-288.483 -3.32151 0
-286.838 -3.32672 0
-285.191 -3.33131 0
-283.539 -3.33332 0
-281.889 -3.33713 0
-280.238 -3.33963 0
-278.593 -3.34187 0
-276.942 -3.34554 0
-275.292 -3.34888 0
-273.647 -3.35007 0
-271.993 -3.35346 0
-270.344 -3.35386 0
-268.698 -3.35992 0
-267.05 -3.35694 0
-265.398 -3.365 0
-263.749 -3.36502 0
-262.099 -3.3646 0
-260.453 -3.37226 0
-258.803 -3.3741 0
-257.155 -3.37566 0
-255.508 -3.38148 0
-253.862 -3.38191 0
-252.217 -3.38227 0
-250.568 -3.38752 0
-248.916 -3.38381 0
-247.266 -3.38118 0
-245.616 -3.38489 0
-243.968 -3.38562 0
-242.319 -3.38748 0
-240.67 -3.38985 0
-239.029 -3.38772 0
-237.374 -3.38455 0
-235.725 -3.38994 0
-234.077 -3.39544 0
-232.428 -3.38994 0
-230.78 -3.39169 0
-229.135 -3.39137 0
-227.485 -3.39628 0
-225.836 -3.39509 0
-224.185 -3.39664 0
-222.535 -3.39024 0
-220.888 -3.38345 0
-219.239 -3.38669 0
-217.593 -3.38991 0
-215.943 -3.38868 0
-214.294 -3.39231 0
-212.647 -3.39256 0
-210.999 -3.39814 0
-209.349 -3.40057 0
-207.7 -3.39759 0
-206.051 -3.39707 0
-204.405 -3.39982 0
-202.755 -3.39444 0
-201.106 -3.3939 0
-199.458 -3.39293 0
-197.81 -3.39027 0
-196.159 -3.39156 0
-194.512 -3.38934 0
-192.863 -3.38865 0
-191.217 -3.38528 0
-189.568 -3.38649 0
-187.919 -3.39105 0
-186.272 -3.38753 0
-184.623 -3.38875 0
-182.978 -3.37927 0
-181.328 -3.37971 0
-179.685 -3.38257 0
-178.035 -3.38222 0
-176.387 -3.37778 0
-174.736 -3.37774 0
-173.087 -3.37628 0
-171.44 -3.37142 0
-169.792 -3.36642 0
-168.141 -3.3622 0
-166.493 -3.36692 0
-164.844 -3.36136 0
-163.197 -3.35911 0
-161.549 -3.35758 0
-159.899 -3.3567 0
-158.254 -3.35368 0
-156.604 -3.35137 0
-154.961 -3.34589 0
-153.31 -3.35055 0
-151.662 -3.34717 0
-150.013 -3.34502 0
-148.361 -3.33929 0
-146.713 -3.3407 0
-145.067 -3.33717 0
-143.419 -3.33871 0
-141.767 -3.33258 0
-140.118 -3.32867 0
-138.468 -3.32895 0
-136.825 -3.32775 0
-135.177 -3.32341 0
-133.525 -3.322 0
-131.876 -3.31912 0
-130.227 -3.31904 0
-128.572 -3.3195 0
-126.929 -3.31315 0
-125.282 -3.32195 0
-123.632 -3.31427 0
-121.987 -3.31328 0
-120.339 -3.31171 0
-118.69 -3.30842 0
-117.038 -3.30588 0
-115.39 -3.30598 0
-113.739 -3.30717 0
-112.092 -3.30253 0
-110.443 -3.30465 0
-108.791 -3.2983 0
-107.144 -3.29903 0
-105.495 -3.29242 0
-103.849 -3.28861 0
-102.2 -3.28788 0
-100.55 -3.2823 0
-98.9026 -3.28569 0
-97.2562 -3.28589 0
-95.6038 -3.28327 0
-93.9533 -3.28425 0
-92.3087 -3.27994 0
-90.6563 -3.28181 0
-89.0083 -3.28405 0
-87.3586 -3.28205 0
-85.7114 -3.28026 0
-84.0631 -3.27515 0
-82.4181 -3.27232 0
-80.768 -3.27367 0
-79.117 -3.27556 0
-77.4708 -3.26864 0
-75.8251 -3.26859 0
-74.178 -3.2688 0
-72.5281 -3.26617 0
-70.8806 -3.26648 0
-69.2274 -3.26584 0
-67.5807 -3.26301 0
-65.9328 -3.26112 0
-64.2869 -3.26346 0
-62.6395 -3.26817 0
-60.9889 -3.26707 0
-59.34 -3.26735 0
-57.6889 -3.25919 0
-56.0415 -3.26149 0
-54.3934 -3.25791 0
-52.7459 -3.2573 0
-51.0966 -3.25441 0
-49.4477 -3.25331 0
-47.7987 -3.24366 0
-46.1531 -3.24634 0
-44.5066 -3.24818 0
-42.8588 -3.24447 0
-41.2102 -3.24101 0
-39.5635 -3.24341 0
-37.9104 -3.2368 0
-36.2614 -3.24045 0
-34.6125 -3.24159 0
-32.9663 -3.24153 0
-31.3195 -3.23372 0
-29.6737 -3.23489 0
-28.0275 -3.23994 0
-26.3782 -3.23546 0
-24.7244 -3.2357 0
-23.0756 -3.23907 0
-21.4295 -3.23873 0
-19.7807 -3.23559 0
-18.1353 -3.23975 0
-16.4909 -3.23885 0
-14.8419 -3.23608 0
-13.1953 -3.23477 0
-11.5424 -3.23192 0
-9.89683 -3.23021 0
-8.24475 -3.23064 0
-6.59614 -3.22952 0
-4.94449 -3.23408 0
-3.29062 -3.22693 0
-1.64661 -3.22511 0
0 -3.22343 0
-1111.19 146.921 0
-1111 134.521 0
-1110.95 122.468 0
-1110.87 110.634 0
-1110.73 99.0591 0
-1110.53 87.7681 0
-1110.24 76.8306 0
-1109.89 66.3139 0
-1109.49 56.2773 0
-1109.04 46.7589 0
-1108.54 37.7921 0
-1107.99 29.3867 0
-1107.4 21.5589 0
-1106.77 14.329 0
-1106.17 7.62181 0
-1105.62 1.38635 0
-1105.13 -4.45591 0
-1104.66 -9.95221 0
-1104.16 -15.0688 0
-1103.63 -19.7916 0
-1103.09 -24.1398 0
-1102.53 -28.101 0
-1101.95 -31.6625 0
-1101.36 -34.8307 0
-1100.76 -37.6171 0
-1100.15 -40.042 0
-1099.53 -42.1126 0
-1098.9 -43.8515 0
-1098.25 -45.275 0
-1097.59 -46.414 0
-1096.9 -47.2756 0
-1096.19 -47.8892 0
-1095.46 -48.2674 0
-1094.69 -48.4323 0
-1093.89 -48.3987 0
-1093.05 -48.1813 0
-1092.19 -47.7916 0
-1091.29 -47.2455 0
-1090.35 -46.5566 0
-1089.38 -45.7418 0
-1088.37 -44.8033 0
-1087.33 -43.7568 0
-1086.25 -42.6154 0
-1085.13 -41.3858 0
-1083.98 -40.0876 0
-1082.8 -38.7169 0
-1081.59 -37.2862 0
-1080.34 -35.8043 0
-1079.06 -34.2858 0
-1077.75 -32.7311 0
-1076.41 -31.1438 0
-1075.04 -29.5359 0
-1073.65 -27.9126 0
-1072.22 -26.277 0
-1070.77 -24.6332 0
-1069.29 -22.9961 0
-1067.79 -21.361 0
-1066.27 -19.7373 0
-1064.72 -18.1209 0
-1063.16 -16.5234 0
-1061.57 -14.9435 0
-1059.96 -13.3847 0
-1058.34 -11.8585 0
-1056.69 -10.3544 0
-1055.04 -8.88294 0
-1053.36 -7.44469 0
-1051.67 -6.04323 0
-1049.97 -4.67633 0
-1048.25 -3.34817 0
-1046.53 -2.05961 0
-1044.79 -0.806658 0
-1043.04 0.402102 0
-1041.28 1.57023 0
-1039.51 2.69092 0
-1037.73 3.76787 0
-1035.94 4.79931 0
-1034.15 5.7889 0
-1032.35 6.73174 0
-1030.54 7.62702 0
-1028.74 8.47628 0
-1026.92 9.27996 0
-1025.1 10.0399 0
-1023.28 10.7511 0
-1021.46 11.4179 0
-1019.63 12.0408 0
-1017.8 12.6128 0
-1015.97 13.1447 0
-1014.14 13.6326 0
-1012.31 14.0766 0
-1010.48 14.4773 0
-1008.64 14.8358 0
-1006.81 15.1499 0
-1004.98 15.4244 0
-1003.15 15.6617 0
-1001.33 15.8575 0
-999.502 16.0128 0
-997.68 16.1326 0
-995.861 16.2151 0
-994.044 16.2651 0
-992.23 16.2815 0
-990.42 16.2611 0
-988.61 16.2091 0
-986.81 16.1274 0
-985.011 16.0159 0
-983.216 15.8748 0
-981.425 15.7071 0
-979.638 15.5116 0
-977.857 15.294 0
-976.08 15.046 0
-974.309 14.7776 0