<?xml version="1.0"?>
<VTKFile type="StructuredGrid"  version="0.1" byte_order="LittleEndian" compressor="vtkZLibDataCompressor">
  <StructuredGrid WholeExtent="0 700 0 30 0 0">
    <Piece Extent="0 700 0 30 0 0">
      <PointData Vectors="Velocity">
        <DataArray type="Float32" Name="Velocity" NumberOfComponents="3" format="ascii">
-1069.16 99.8536 0
-1069.58 89.9009 0
-1070.05 80.0786 0
-1070.54 70.47 0
-1071.04 61.121 0
-1071.59 52.0964 0
-1072.19 43.48 0
-1072.82 35.3312 0
-1073.45 27.6774 0
-1074.08 20.5506 0
-1074.67 13.966 0
-1075.23 7.93682 0
-1075.74 2.49204 0
-1076.14 -2.41385 0
-1076.4 -6.89426 0
-1076.56 -11.1263 0
-1076.81 -15.0704 0
-1077.09 -18.6366 0
-1077.34 -21.8167 0
-1077.54 -24.6112 0
-1077.72 -27.0218 0
-1077.86 -29.0658 0
-1077.98 -30.7575 0
-1078.02 -32.1223 0
-1078.01 -33.1798 0
-1077.92 -33.9661 0
-1077.76 -34.4993 0
-1077.53 -34.8012 0
-1077.22 -34.8946 0
-1076.84 -34.804 0
-1076.38 -34.5425 0
-1075.85 -34.1347 0
-1075.24 -33.5893 0
-1074.57 -32.9227 0
-1073.83 -32.1505 0
-1073.02 -31.2835 0
-1072.15 -30.3327 0
-1071.21 -29.3131 0
-1070.22 -28.2311 0
-1069.16 -27.0996 0
-1068.06 -25.9266 0
-1066.9 -24.7222 0
-1065.69 -23.4896 0
-1064.43 -22.2444 0
-1063.13 -20.9856 0
-1061.78 -19.7245 0
-1060.4 -18.4618 0
-1058.97 -17.2056 0
-1057.51 -15.9604 0
-1056.02 -14.7348 0
-1054.49 -13.5261 0
-1052.93 -12.3378 0
-1051.35 -11.1764 0
-1049.74 -10.0461 0
-1048.1 -8.94768 0
-1046.44 -7.87996 0
-1044.77 -6.84986 0
-1043.07 -5.85677 0
-1041.36 -4.89956 0
-1039.62 -3.98431 0
-1037.88 -3.10818 0
-1036.12 -2.27435 0
-1034.35 -1.48469 0
-1032.57 -0.737859 0
-1030.78 -0.03301 0
-1028.98 0.62972 0
-1027.17 1.24948 0
-1025.36 1.82397 0
-1023.55 2.35793 0
-1021.72 2.84893 0
-1019.9 3.29567 0
-1018.07 3.70247 0
-1016.24 4.06846 0
-1014.41 4.3942 0
-1012.58 4.68077 0
-1010.75 4.92805 0
-1008.93 5.14108 0
-1007.1 5.31428 0
-1005.27 5.45138 0
-1003.45 5.55516 0
-1001.64 5.62693 0
-999.826 5.666 0
-998.019 5.67304 0
-996.218 5.64983 0
-994.42 5.59912 0
-992.627 5.52249 0
-990.839 5.42143 0
-989.058 5.29223 0
-987.287 5.1429 0
-985.521 4.96881 0
-983.762 4.77563 0
-982.008 4.56399 0
-980.263 4.33377 0
-978.524 4.08624 0
-976.793 3.82246 0
-975.069 3.5455 0
-973.353 3.25557 0
-971.646 2.95533 0
-969.946 2.6458 0
-968.252 2.32508 0
-966.564 1.99903 0
-964.883 1.66195 0
-963.212 1.32284 0
-961.547 0.976997 0
-959.889 0.629626 0
-958.238 0.279521 0
-956.593 -0.0714349 0
-954.954 -0.425226 0
-953.322 -0.774491 0
-951.696 -1.12412 0
-950.075 -1.47132 0
-948.46 -1.81343 0
-946.851 -2.15411 0
-945.245 -2.48948 0
-943.646 -2.81573 0
-942.051 -3.13793 0
-940.461 -3.4535 0
-938.875 -3.76148 0
-937.291 -4.06385 0
-935.713 -4.35552 0
-934.137 -4.63824 0
-932.564 -4.91524 0
-930.997 -5.17778 0
-929.431 -5.43174 0
-927.867 -5.67812 0
-926.305 -5.9121 0
-924.744 -6.13358 0
-923.186 -6.34668 0
-921.63 -6.54764 0
-920.075 -6.73714 0
-918.521 -6.91578 0
-916.969 -7.08428 0
-915.417 -7.24081 0
-913.865 -7.3865 0
-912.314 -7.5214 0
-910.763 -7.64329 0
-909.212 -7.75713 0
-907.66 -7.85593 0
-906.11 -7.94593 0
-904.557 -8.02381 0
-903.003 -8.09601 0
-901.451 -8.15251 0
-899.896 -8.20315 0
-898.342 -8.2403 0
-896.785 -8.26868 0
-895.227 -8.29135 0
-893.669 -8.29794 0
-892.108 -8.30059 0
-890.546 -8.29425 0
-888.983 -8.28088 0
-887.419 -8.25931 0
-885.851 -8.22849 0
-884.282 -8.18919 0
-882.712 -8.14499 0
-881.139 -8.09528 0
-879.567 -8.04096 0
-877.993 -7.97626 0
-876.417 -7.90982 0
-874.835 -7.83611 0
-873.255 -7.75827 0
-871.671 -7.67619 0
-870.087 -7.58975 0
-868.499 -7.49922 0
-866.91 -7.40588 0
-865.321 -7.30898 0
-863.729 -7.21022 0
-862.134 -7.10788 0
-860.537 -7.00281 0
-858.939 -6.89375 0
-857.339 -6.78445 0
-855.737 -6.67646 0
-854.133 -6.5637 0
-852.528 -6.45533 0
-850.922 -6.34251 0
-849.312 -6.23194 0
-847.702 -6.11752 0
-846.089 -6.00588 0
-844.477 -5.8961 0
-842.865 -5.78526 0
-841.249 -5.67621 0
-839.63 -5.56664 0
-838.01 -5.45837 0
-836.391 -5.35162 0
-834.768 -5.25063 0
-833.148 -5.14665 0
-831.525 -5.04667 0
-829.902 -4.94939 0
-828.276 -4.8555 0
-826.652 -4.75872 0
-825.025 -4.66764 0
-823.398 -4.57925 0
-821.769 -4.49481 0
-820.141 -4.40838 0
-818.512 -4.33017 0
-816.881 -4.25249 0
-815.25 -4.1792 0
-813.619 -4.1073 0
-811.986 -4.0391 0
-810.356 -3.97478 0
-808.724 -3.91365 0
-807.092 -3.8562 0
-805.462 -3.79768 0
-803.831 -3.74737 0
-802.197 -3.69748 0
-800.562 -3.65251 0
-798.927 -3.60873 0
-797.293 -3.56949 0
-795.66 -3.53574 0
-794.029 -3.50375 0
-792.398 -3.47406 0
-790.765 -3.44752 0
-789.133 -3.42518 0
-787.498 -3.40388 0
-785.865 -3.38486 0
-784.232 -3.37444 0
-782.598 -3.36168 0
-780.968 -3.3494 0
-779.337 -3.34297 0
-777.705 -3.33752 0
-776.073 -3.33916 0
-774.442 -3.34188 0
-772.811 -3.34596 0
-771.184 -3.354 0
-769.554 -3.36123 0
-767.926 -3.37334 0
-766.299 -3.38433 0
-764.67 -3.3998 0
-763.044 -3.41844 0
-761.42 -3.43604 0
-759.792 -3.45919 0
-758.165 -3.47983 0
-756.54 -3.5027 0
-754.915 -3.52909 0
-753.292 -3.55715 0
-751.67 -3.58517 0
-750.049 -3.613 0
-748.425 -3.63999 0
-746.804 -3.67017 0
-745.18 -3.70436 0
-743.561 -3.73743 0
-741.938 -3.76891 0
-740.319 -3.80309 0
-738.702 -3.83973 0
-737.081 -3.87383 0
-735.461 -3.90932 0
-733.846 -3.94645 0
-732.229 -3.98209 0
-730.613 -4.02019 0
-728.998 -4.05583 0
-727.383 -4.09453 0
-725.768 -4.12963 0
-724.153 -4.16601 0
-722.536 -4.2026 0
-720.923 -4.24031 0
-719.31 -4.27472 0
-717.695 -4.31154 0
-716.083 -4.34858 0
-714.469 -4.38378 0
-712.86 -4.41836 0
-711.249 -4.4495 0
-709.638 -4.48125 0
-708.026 -4.51392 0
-706.417 -4.55133 0
-704.805 -4.57875 0
-703.193 -4.61064 0
-701.583 -4.64233 0
-699.976 -4.66985 0
-698.367 -4.6979 0
-696.758 -4.72627 0
-695.147 -4.75152 0
-693.541 -4.78088 0
-691.93 -4.80381 0
-690.321 -4.82897 0
-688.714 -4.85307 0
-687.107 -4.87521 0
-685.494 -4.9 0
-683.886 -4.91809 0
-682.279 -4.93591 0
-680.67 -4.9543 0
-679.06 -4.96979 0
-677.454 -4.98763 0
-675.848 -5.00251 0
-674.24 -5.01979 0
-672.631 -5.03421 0
-671.022 -5.04626 0
-669.415 -5.06121 0
-667.809 -5.07067 0
-666.201 -5.0807 0
-664.591 -5.08849 0
-662.982 -5.0935 0
-661.375 -5.10256 0
-659.764 -5.11023 0
-658.158 -5.11235 0
-656.551 -5.11668 0
-654.94 -5.11567 0
-653.331 -5.11967 0
-651.722 -5.12462 0
-650.113 -5.12811 0
-648.503 -5.12624 0
-646.894 -5.12457 0
-645.286 -5.12207 0
-643.678 -5.11963 0
-642.066 -5.11759 0
-640.458 -5.11512 0
-638.85 -5.11157 0
-637.24 -5.11026 0
-635.628 -5.10396 0
-634.018 -5.09957 0
-632.409 -5.09218 0
-630.798 -5.08625 0
-629.188 -5.08033 0
-627.577 -5.07487 0
-625.97 -5.06611 0
-624.357 -5.05596 0
-622.746 -5.04602 0
-621.134 -5.03766 0
-619.523 -5.02405 0
-617.912 -5.0202 0
-616.299 -5.00996 0
-614.686 -4.99841 0
-613.075 -4.98853 0
-611.459 -4.98083 0
-609.847 -4.96437 0
-608.235 -4.95471 0
-606.626 -4.94454 0
-605.013 -4.9356 0
-603.4 -4.92403 0
-601.785 -4.90889 0
-600.171 -4.8986 0
-598.557 -4.88973 0
-596.944 -4.87947 0
-595.328 -4.8685 0
-593.712 -4.85953 0
-592.098 -4.84621 0
-590.484 -4.83517 0
-588.869 -4.81779 0
-587.26 -4.81298 0
-585.644 -4.80217 0
-584.031 -4.79437 0
-582.419 -4.77925 0
-580.804 -4.7703 0
-579.189 -4.75734 0
-577.573 -4.74631 0
-575.955 -4.73931 0
-574.34 -4.72969 0
-572.722 -4.72417 0
-571.11 -4.71253 0
-569.496 -4.70361 0
-567.883 -4.69433 0
-566.263 -4.68675 0
-564.646 -4.67887 0
-563.031 -4.66935 0
-561.419 -4.66565 0
-559.802 -4.65681 0
-558.187 -4.65107 0
-556.57 -4.64495 0
-554.954 -4.63565 0
-553.341 -4.63533 0
-551.725 -4.62524 0
-550.105 -4.61994 0
-548.491 -4.61524 0
-546.871 -4.61215 0
-545.258 -4.60651 0
-543.646 -4.60161 0
-542.029 -4.59876 0
-540.412 -4.59527 0
-538.798 -4.59198 0
-537.175 -4.59066 0
-535.564 -4.58466 0
-533.95 -4.58095 0
-532.333 -4.5792 0
-530.719 -4.57561 0
-529.099 -4.57657 0
-527.489 -4.5766 0
-525.872 -4.57729 0
-524.257 -4.57225 0
-522.642 -4.57547 0
-521.025 -4.57524 0
-519.41 -4.57347 0
-517.794 -4.57544 0
-516.181 -4.57721 0
-514.57 -4.5747 0
-512.953 -4.57639 0
-511.336 -4.57725 0
-509.724 -4.57447 0
-508.108 -4.57451 0
-506.492 -4.57169 0
-504.873 -4.57978 0
-503.258 -4.57885 0
-501.64 -4.58145 0
-500.025 -4.58418 0
-498.412 -4.58835 0
-496.802 -4.59084 0
-495.185 -4.59674 0
-493.569 -4.59759 0
-491.956 -4.60278 0
-490.342 -4.6073 0
-488.723 -4.60954 0
-487.116 -4.61095 0
-485.5 -4.61026 0
-483.883 -4.61454 0
-482.268 -4.61758 0
-480.655 -4.62211 0
-479.041 -4.63049 0
-477.428 -4.63659 0
-475.81 -4.63744 0
-474.195 -4.63829 0
-472.584 -4.646 0
-470.969 -4.6517 0
-469.357 -4.65428 0
-467.743 -4.65747 0
-466.127 -4.66506 0
-464.514 -4.67237 0
-462.902 -4.67357 0
-461.288 -4.67842 0
-459.674 -4.68474 0
-458.062 -4.68855 0
-456.446 -4.69404 0
-454.835 -4.69714 0
-453.226 -4.7033 0
-451.613 -4.70577 0
-450.003 -4.70619 0
-448.388 -4.71293 0
-446.773 -4.71162 0
-445.153 -4.72373 0
-443.539 -4.72759 0
-441.927 -4.7287 0
-440.314 -4.73062 0
-438.701 -4.73452 0
-437.086 -4.73587 0
-435.473 -4.74431 0
-433.856 -4.7475 0
-432.247 -4.75137 0
-430.633 -4.75544 0
-429.017 -4.756 0
-427.399 -4.76141 0
-425.789 -4.76361 0
-424.178 -4.77333 0
-422.562 -4.77223 0
-420.952 -4.77515 0
-419.338 -4.7809 0
-417.728 -4.78566 0
-416.113 -4.78697 0
-414.502 -4.78506 0
-412.89 -4.78737 0
-411.272 -4.79118 0
-409.661 -4.79622 0
-408.049 -4.80036 0
-406.437 -4.80404 0
-404.822 -4.80643 0
-403.209 -4.80376 0
-401.598 -4.80571 0
-399.984 -4.8002 0
-398.373 -4.8035 0
-396.758 -4.80318 0
-395.146 -4.81064 0
-393.531 -4.80969 0
-391.92 -4.81178 0
-390.306 -4.81609 0
-388.698 -4.81766 0
-387.083 -4.81162 0
-385.468 -4.82052 0
-383.849 -4.82129 0
-382.241 -4.82023 0
-380.63 -4.82161 0
-379.015 -4.82357 0
-377.406 -4.82055 0
-375.79 -4.82066 0
-374.18 -4.82292 0
-372.567 -4.81971 0
-370.955 -4.81955 0
-369.338 -4.81724 0
-367.727 -4.8258 0
-366.114 -4.82202 0
-364.5 -4.8201 0
-362.886 -4.82132 0
-361.271 -4.81954 0
-359.654 -4.81651 0
-358.043 -4.81758 0
-356.428 -4.81663 0
-354.819 -4.81566 0
-353.205 -4.81212 0
-351.591 -4.81234 0
-349.979 -4.81304 0
-348.37 -4.81345 0
-346.753 -4.8169 0
-345.142 -4.82079 0
-343.534 -4.81828 0
-341.92 -4.81671 0
-340.302 -4.81486 0
-338.689 -4.81413 0
-337.076 -4.81005 0
-335.463 -4.811 0
-333.854 -4.80603 0
-332.243 -4.80644 0
-330.633 -4.80392 0
-329.019 -4.80672 0
-327.403 -4.80666 0
-325.789 -4.80342 0
-324.176 -4.80382 0
-322.56 -4.80285 0
-320.947 -4.80164 0
-319.339 -4.80509 0
-317.721 -4.80363 0
-316.104 -4.79497 0
-314.492 -4.79912 0
-312.879 -4.79749 0
-311.266 -4.79639 0
-309.651 -4.79386 0
-308.041 -4.79618 0
-306.431 -4.79174 0
-304.817 -4.79431 0
-303.204 -4.79533 0
-301.588 -4.7935 0
-299.981 -4.79308 0
-298.37 -4.79008 0
-296.754 -4.79037 0
-295.138 -4.79333 0
-293.522 -4.78938 0
-291.911 -4.7862 0
-290.3 -4.79171 0
-288.679 -4.79008 0
-287.066 -4.78713 0
-285.454 -4.78572 0
-283.84 -4.7854 0
-282.229 -4.78306 0
-280.612 -4.7795 0
-278.998 -4.78347 0
-277.385 -4.78132 0
-275.774 -4.77988 0
-274.16 -4.77538 0
-272.551 -4.77564 0
-270.936 -4.77605 0
-269.32 -4.77711 0
-267.706 -4.77504 0
-266.099 -4.78045 0
-264.487 -4.77717 0
-262.869 -4.77566 0
-261.26 -4.76862 0
-259.646 -4.77599 0
-258.026 -4.77589 0
-256.411 -4.77227 0
-254.802 -4.7716 0
-253.187 -4.77178 0
-251.575 -4.77768 0
-249.966 -4.78137 0
-248.352 -4.77185 0
-246.736 -4.7649 0
-245.118 -4.76998 0
-243.508 -4.76724 0
-241.893 -4.77133 0
-240.284 -4.76877 0
-238.672 -4.7716 0
-237.053 -4.77126 0
-235.436 -4.77273 0
-233.822 -4.77043 0
-232.212 -4.77399 0
-230.602 -4.77406 0
-228.987 -4.77523 0
-227.375 -4.7687 0
-225.76 -4.76788 0
-224.143 -4.7768 0
-222.526 -4.77394 0
-220.913 -4.78068 0
-219.305 -4.77832 0
-217.696 -4.77434 0
-216.078 -4.77838 0
-214.467 -4.77975 0
-212.853 -4.7732 0
-211.242 -4.77596 0
-209.632 -4.78051 0
-208.022 -4.77699 0
-206.408 -4.7732 0
-204.797 -4.77226 0
-203.177 -4.77645 0
-201.565 -4.77039 0
-199.951 -4.77041 0
-198.336 -4.77463 0
-196.72 -4.77003 0
-195.113 -4.77306 0
-193.505 -4.77411 0
-191.892 -4.77342 0
-190.28 -4.77818 0
-188.668 -4.77293 0
-187.054 -4.77485 0
-185.441 -4.7719 0
-183.824 -4.77616 0
-182.214 -4.77381 0
-180.6 -4.77765 0
-178.988 -4.77748 0
-177.375 -4.77592 0
-175.758 -4.7771 0
-174.145 -4.77893 0
-172.533 -4.77884 0
-170.923 -4.79055 0
-169.318 -4.77826 0
-167.706 -4.7796 0
-166.097 -4.77364 0
-164.478 -4.77971 0
-162.867 -4.77868 0
-161.248 -4.78283 0
-159.64 -4.78284 0
-158.027 -4.78167 0
-156.411 -4.78019 0
-154.8 -4.78564 0
-153.193 -4.78062 0
-151.578 -4.78101 0
-149.96 -4.78103 0
-148.352 -4.77448 0
-146.738 -4.77175 0
-145.124 -4.7863 0
-143.512 -4.78546 0
-141.902 -4.78254 0
-140.289 -4.78294 0
-138.673 -4.78168 0
-137.061 -4.78156 0
-135.45 -4.78227 0
-133.836 -4.78225 0
-132.221 -4.78283 0
-130.611 -4.78414 0
-128.996 -4.78233 0
-127.383 -4.78238 0
-125.775 -4.78561 0
-124.161 -4.78433 0
-122.547 -4.78485 0
-120.933 -4.78471 0
-119.317 -4.7834 0
-117.706 -4.79006 0
-116.095 -4.78968 0
-114.481 -4.78903 0
-112.869 -4.78713 0
-111.255 -4.791 0
-109.65 -4.78551 0
-108.035 -4.79189 0
-106.422 -4.78576 0
-104.81 -4.78826 0
-103.196 -4.78736 0
-101.581 -4.79066 0
-99.9677 -4.78978 0
-98.3574 -4.78605 0
-96.7399 -4.78391 0
-95.127 -4.78728 0
-93.5157 -4.78556 0
-91.9032 -4.7855 0
-90.2885 -4.78391 0
-88.6785 -4.7859 0
-87.0671 -4.79116 0
-85.4559 -4.78995 0
-83.8385 -4.78845 0
-82.2279 -4.79032 0
-80.6169 -4.79128 0
-79.0051 -4.79031 0
-77.3951 -4.78887 0
-75.7795 -4.79352 0
-74.1706 -4.7912 0
-72.56 -4.79322 0
-70.9476 -4.79446 0
-69.3363 -4.79717 0
-67.7218 -4.79316 0
-66.109 -4.79702 0
-64.5017 -4.79194 0
-62.8876 -4.79419 0
-61.2742 -4.79026 0
-59.6577 -4.79271 0
-58.0463 -4.7932 0
-56.4356 -4.78753 0
-54.8254 -4.79195 0
-53.2103 -4.79196 0
-51.5982 -4.7896 0
-49.9825 -4.79468 0
-48.3694 -4.79395 0
-46.7587 -4.79172 0
-45.1489 -4.79296 0
-43.5368 -4.79089 0
-41.9233 -4.79117 0
-40.3112 -4.79086 0
-38.6999 -4.78573 0
-37.0841 -4.78823 0
-35.4713 -4.78815 0
-33.8618 -4.78763 0
-32.2483 -4.78657 0
-30.6349 -4.78592 0
-29.0257 -4.78761 0
-27.4139 -4.78654 0
-25.7973 -4.78643 0
-24.1839 -4.78233 0
-22.5677 -4.78345 0
-20.9606 -4.78472 0
-19.3483 -4.78744 0
-17.7386 -4.78761 0
-16.1259 -4.78145 0
-14.5139 -4.78146 0
-12.8999 -4.7866 0
-11.283 -4.78601 0
-9.67171 -4.78501 0
-8.05965 -4.78576 0
-6.4442 -4.78262 0
-4.83376 -4.78219 0
-3.21943 -4.78337 0
-1.61189 -4.78876 0
0 -4.79165 0
-1079.12 100.298 0
-1079.42 90.2932 0
-1079.72 80.4407 0
-1080 70.8097 0
-1080.26 61.4307 0
-1080.46 52.3566 0
-1080.63 43.6881 0
-1080.76 35.4868 0
-1080.87 27.7939 0
-1080.95 20.6397 0
-1080.97 14.0437 0
-1080.94 8.00918 0
-1080.85 2.57106 0
-1080.76 -2.31415 0
-1080.73 -6.79637 0
-1080.73 -11.035 0
-1080.65 -14.992 0
-1080.52 -18.5709 0
-1080.37 -21.745 0
-1080.2 -24.5317 0
-1080.01 -26.9347 0
-1079.8 -28.9629 0
-1079.56 -30.6272 0
-1079.29 -31.9549 0
-1078.97 -32.9698 0
-1078.61 -33.7022 0
-1078.21 -34.1793 0
-1077.75 -34.4215 0
-1077.25 -34.4532 0
-1076.68 -34.3 0
-1076.06 -33.9771 0
-1075.39 -33.504 0
-1074.65 -32.8954 0
-1073.86 -32.1678 0
-1073.02 -31.3349 0
-1072.12 -30.4072 0
-1071.17 -29.3995 0
-1070.17 -28.3215 0
-1069.12 -27.1885 0
-1068.03 -26.0056 0
-1066.89 -24.7821 0
-1065.7 -23.531 0
-1064.47 -22.2539 0
-1063.2 -20.9632 0
-1061.89 -19.6634 0
-1060.54 -18.3628 0
-1059.16 -17.0631 0
-1057.74 -15.7729 0
-1056.3 -14.4947 0
-1054.82 -13.2381 0
-1053.31 -12.0001 0
-1051.78 -10.7839 0
-1050.22 -9.59921 0
-1048.64 -8.44492 0
-1047.04 -7.3248 0
-1045.42 -6.23673 0
-1043.77 -5.18832 0
-1042.12 -4.17773 0
-1040.44 -3.20647 0
-1038.75 -2.27467 0
-1037.04 -1.38731 0
-1035.33 -0.540701 0
-1033.6 0.258123 0
-1031.86 1.01649 0
-1030.11 1.72833 0
-1028.36 2.39923 0
-1026.59 3.0228 0
-1024.82 3.60437 0
-1023.05 4.14295 0
-1021.27 4.63756 0
-1019.48 5.08801 0
-1017.69 5.49645 0
-1015.91 5.86206 0
-1014.12 6.18958 0
-1012.32 6.47438 0
-1010.53 6.72113 0
-1008.74 6.93162 0
-1006.95 7.10452 0
-1005.16 7.23863 0
-1003.38 7.34004 0
-1001.59 7.40747 0
-999.81 7.44208 0
-998.033 7.44519 0
-996.259 7.41856 0
-994.487 7.3636 0
-992.72 7.2816 0
-990.958 7.1738 0
-989.202 7.03896 0
-987.45 6.88347 0
-985.705 6.70337 0
-983.964 6.50402 0
-982.229 6.28554 0
-980.501 6.04934 0
-978.779 5.7949 0
-977.062 5.52464 0
-975.352 5.24131 0
-973.648 4.94416 0
-971.949 4.63773 0
-970.258 4.32085 0
-968.572 3.99445 0
-966.893 3.66017 0
-965.218 3.31821 0
-963.551 2.97092 0
-961.889 2.61917 0
-960.234 2.26553 0
-958.585 1.91002 0
-956.94 1.55218 0
-955.301 1.19477 0
-953.668 0.838202 0
-952.04 0.485 0
-950.416 0.131794 0
-948.798 -0.21612 0
-947.183 -0.560979 0
-945.574 -0.899741 0
-943.968 -1.23121 0
-942.366 -1.5577 0
-940.768 -1.87731 0
-939.175 -2.18932 0
-937.584 -2.494 0
-935.996 -2.78989 0
-934.413 -3.0758 0
-932.832 -3.35442 0
-931.253 -3.62167 0
-929.677 -3.87706 0
-928.103 -4.12503 0
-926.529 -4.36107 0
-924.959 -4.58481 0
-923.39 -4.79901 0
-921.824 -5.00153 0
-920.258 -5.19201 0
-918.692 -5.37178 0
-917.129 -5.54162 0
-915.565 -5.69676 0
-914.003 -5.84506 0
-912.44 -5.97913 0
-910.878 -6.10192 0
-909.316 -6.21363 0
-907.754 -6.31447 0
-906.193 -6.40437 0
-904.63 -6.48254 0
-903.068 -6.55227 0
-901.504 -6.6098 0
-899.94 -6.65738 0
-898.375 -6.69533 0
-896.809 -6.72319 0
-895.242 -6.74169 0
-893.674 -6.74965 0
-892.105 -6.75031 0
-890.536 -6.74355 0
-888.964 -6.72691 0
-887.392 -6.7036 0
-885.817 -6.67074 0
-884.242 -6.63091 0
-882.665 -6.58658 0
-881.088 -6.53469 0
-879.509 -6.47902 0
-877.927 -6.41292 0
-876.344 -6.34406 0
-874.761 -6.26813 0
-873.174 -6.18863 0
-871.588 -6.10443 0
-869.999 -6.01609 0
-868.408 -5.92499 0
-866.816 -5.83037 0
-865.223 -5.73118 0
-863.628 -5.62971 0
-862.032 -5.52596 0
-860.432 -5.4193 0
-858.831 -5.31077 0
-857.229 -5.19851 0
-855.627 -5.08687 0
-854.023 -4.97577 0
-852.417 -4.86416 0
-850.81 -4.75127 0
-849.202 -4.63735 0
-847.591 -4.52198 0
-845.98 -4.40981 0
-844.368 -4.29684 0
-842.754 -4.18676 0
-841.14 -4.07594 0
-839.525 -3.96611 0
-837.905 -3.85506 0
-836.287 -3.74797 0
-834.668 -3.64438 0
-833.048 -3.541 0
-831.428 -3.43962 0
-829.807 -3.34316 0
-828.183 -3.24334 0
-826.56 -3.1504 0
-824.936 -3.05645 0
-823.313 -2.96788 0
-821.686 -2.88101 0
-820.059 -2.79852 0
-818.434 -2.71638 0
-816.806 -2.63867 0
-815.176 -2.56364 0
-813.549 -2.49167 0
-811.921 -2.42407 0
-810.294 -2.36 0
-808.666 -2.29857 0
-807.037 -2.23965 0
-805.408 -2.18276 0
-803.778 -2.13104 0
-802.148 -2.08056 0
-800.518 -2.03598 0
-798.886 -1.99299 0
-797.258 -1.95406 0
-795.63 -1.91983 0
-793.998 -1.8887 0
-792.37 -1.85738 0
-790.74 -1.8321 0
-789.109 -1.8075 0
-787.479 -1.78775 0
-785.85 -1.76987 0
-784.219 -1.75772 0
-782.59 -1.74535 0
-780.96 -1.73512 0
-779.332 -1.72782 0
-777.704 -1.72569 0
-776.075 -1.72552 0
-774.445 -1.72626 0
-772.818 -1.73371 0
-771.19 -1.74114 0
-769.564 -1.74896 0
-767.936 -1.76265 0
-766.31 -1.77332 0
-764.686 -1.78836 0
-763.06 -1.80956 0
-761.436 -1.8279 0
-759.811 -1.84752 0
-758.187 -1.87015 0
-756.563 -1.89499 0
-754.94 -1.92176 0
-753.319 -1.94981 0
-751.698 -1.97841 0
-750.076 -2.006 0
-748.454 -2.03354 0
-746.832 -2.06491 0
-745.213 -2.10078 0
-743.593 -2.13108 0
-741.974 -2.1653 0
-740.355 -2.20062 0
-738.735 -2.23695 0
-737.118 -2.27051 0
-735.499 -2.30645 0
-733.882 -2.34457 0
-732.265 -2.3807 0
-730.649 -2.42067 0
-729.034 -2.45629 0
-727.419 -2.49224 0
-725.805 -2.52811 0
-724.19 -2.5669 0
-722.576 -2.60401 0
-720.96 -2.64112 0
-719.345 -2.67755 0
-717.732 -2.71432 0
-716.121 -2.75038 0
-714.506 -2.78514 0
-712.894 -2.82067 0
-711.283 -2.85381 0
-709.671 -2.88619 0
-708.059 -2.91839 0
-706.445 -2.95359 0
-704.835 -2.9846 0
-703.226 -3.0152 0
-701.615 -3.0465 0
-700.004 -3.07582 0
-698.393 -3.10367 0
-696.785 -3.13192 0
-695.175 -3.15823 0
-693.565 -3.18819 0
-691.955 -3.20941 0
-690.347 -3.23465 0
-688.736 -3.25815 0
-687.127 -3.28241 0
-685.516 -3.30297 0
-683.907 -3.32473 0
-682.297 -3.34244 0
-680.689 -3.3572 0
-679.078 -3.3773 0
-677.47 -3.39463 0
-675.863 -3.40994 0
-674.253 -3.42631 0
-672.643 -3.44216 0
-671.036 -3.45522 0
-669.428 -3.4683 0
-667.82 -3.4779 0
-666.21 -3.4868 0
-664.603 -3.49409 0
-662.991 -3.50172 0
-661.383 -3.50928 0
-659.772 -3.51414 0
-658.16 -3.51892 0
-656.552 -3.52106 0
-654.943 -3.52373 0
-653.334 -3.52588 0
-651.725 -3.53044 0
-650.115 -3.53103 0
-648.505 -3.5329 0
-646.895 -3.53253 0
-645.288 -3.53007 0
-643.676 -3.52631 0
-642.067 -3.52476 0
-640.456 -3.5226 0
-638.845 -3.51905 0
-637.233 -3.51532 0
-635.624 -3.50995 0
-634.016 -3.50465 0
-632.405 -3.49723 0
-630.792 -3.48959 0
-629.183 -3.48409 0
-627.571 -3.47867 0
-625.958 -3.46974 0
-624.349 -3.46067 0
-622.736 -3.44843 0
-621.124 -3.44 0
-619.515 -3.43069 0
-617.903 -3.42279 0
-616.289 -3.41093 0
-614.677 -3.40284 0
-613.065 -3.39307 0
-611.449 -3.37926 0
-609.837 -3.36977 0
-608.226 -3.35795 0
-606.614 -3.34851 0
-605 -3.33779 0
-603.387 -3.32533 0
-601.774 -3.31075 0
-600.159 -3.2999 0
-598.547 -3.29172 0
-596.932 -3.27903 0
-595.32 -3.27018 0
-593.705 -3.2586 0
-592.09 -3.24664 0
-590.474 -3.23409 0
-588.86 -3.22407 0
-587.248 -3.21167 0
-585.633 -3.20412 0
-584.02 -3.19399 0
-582.405 -3.18147 0
-580.79 -3.16964 0
-579.176 -3.1603 0
-577.564 -3.1464 0
-575.949 -3.1376 0
-574.331 -3.12746 0
-572.717 -3.1225 0
-571.103 -3.1113 0
-569.487 -3.10196 0
-567.87 -3.09399 0
-566.254 -3.08449 0
-564.64 -3.07999 0
-563.024 -3.06964 0
-561.409 -3.06424 0
-559.796 -3.05619 0
-558.179 -3.04832 0
-556.565 -3.04603 0
-554.949 -3.0351 0
-553.332 -3.03291 0
-551.718 -3.02582 0
-550.102 -3.01796 0
-548.487 -3.0147 0
-546.87 -3.00997 0
-545.253 -3.00719 0
-543.639 -3.00285 0
-542.026 -3.00107 0
-540.41 -2.9941 0
-538.793 -2.9922 0
-537.178 -2.98802 0
-535.563 -2.98702 0
-533.946 -2.98077 0
-532.329 -2.97784 0
-530.713 -2.97949 0
-529.099 -2.97783 0
-527.485 -2.98027 0
-525.87 -2.97775 0
-524.255 -2.97481 0
-522.641 -2.973 0
-521.027 -2.9734 0
-519.411 -2.97399 0
-517.797 -2.9747 0
-516.18 -2.97695 0
-514.566 -2.97537 0
-512.951 -2.97457 0
-511.336 -2.97561 0
-509.721 -2.97658 0
-508.106 -2.97779 0
-506.493 -2.97702 0
-504.875 -2.97699 0
-503.258 -2.97688 0
-501.644 -2.98065 0
-500.027 -2.98587 0
-498.416 -2.99211 0
-496.802 -2.99391 0
-495.188 -2.99636 0
-493.576 -2.99954 0
-491.958 -3.00147 0
-490.345 -3.00613 0
-488.733 -3.01018 0
-487.116 -3.01251 0
-485.5 -3.01162 0
-483.889 -3.01657 0
-482.275 -3.01911 0
-480.66 -3.02504 0
-479.048 -3.03398 0
-477.431 -3.03605 0
-475.815 -3.03822 0
-474.203 -3.04227 0
-472.589 -3.04655 0
-470.976 -3.05069 0
-469.36 -3.05622 0
-467.746 -3.05963 0
-466.136 -3.06204 0
-464.519 -3.07407 0
-462.905 -3.07529 0
-461.295 -3.0829 0
-459.679 -3.08538 0
-458.067 -3.08949 0
-456.451 -3.0961 0
-454.839 -3.09973 0
-453.226 -3.10419 0
-451.61 -3.10944 0
-449.998 -3.11183 0
-448.386 -3.11427 0
-446.776 -3.114 0
-445.162 -3.12239 0
-443.546 -3.1268 0
-441.934 -3.13074 0
-440.318 -3.13385 0
-438.705 -3.1356 0
-437.093 -3.14029 0
-435.479 -3.145 0
-433.864 -3.14991 0
-432.248 -3.15211 0
-430.632 -3.1527 0
-429.019 -3.16186 0
-427.406 -3.16304 0
-425.794 -3.16962 0
-424.18 -3.17271 0
-422.566 -3.1747 0
-420.952 -3.17992 0
-419.344 -3.18601 0
-417.73 -3.18484 0
-416.117 -3.189 0
-414.506 -3.1898 0
-412.892 -3.19041 0
-411.278 -3.19498 0
-409.667 -3.19831 0
-408.053 -3.20306 0
-406.439 -3.2055 0
-404.827 -3.20639 0
-403.214 -3.20621 0
-401.597 -3.20442 0
-399.984 -3.20616 0
-398.374 -3.20648 0
-396.76 -3.20607 0
-395.147 -3.21149 0
-393.534 -3.21232 0
-391.923 -3.21567 0
-390.312 -3.21607 0
-388.694 -3.21863 0
-387.082 -3.21699 0
-385.469 -3.21932 0
-383.853 -3.22149 0
-382.24 -3.22485 0
-380.628 -3.22308 0
-379.016 -3.22652 0
-377.401 -3.22101 0
-375.789 -3.2253 0
-374.18 -3.22502 0
-372.565 -3.22134 0
-370.952 -3.22196 0
-369.343 -3.22224 0
-367.73 -3.22599 0
-366.112 -3.22294 0
-364.497 -3.2221 0
-362.884 -3.22254 0
-361.267 -3.2228 0
-359.653 -3.22088 0
-358.04 -3.21843 0
-356.429 -3.22202 0
-354.816 -3.21476 0
-353.202 -3.21521 0
-351.592 -3.21243 0
-349.981 -3.22007 0
-348.366 -3.21707 0
-346.756 -3.21986 0
-345.142 -3.2224 0
-343.53 -3.22351 0
-341.922 -3.21758 0
-340.306 -3.21777 0
-338.691 -3.21589 0
-337.078 -3.21157 0
-335.464 -3.21489 0
-333.851 -3.20838 0
-332.243 -3.20965 0
-330.629 -3.20738 0
-329.016 -3.20685 0
-327.405 -3.20633 0
-325.789 -3.2062 0
-324.174 -3.20392 0
-322.56 -3.20538 0
-320.949 -3.20898 0
-319.334 -3.20626 0
-317.719 -3.20393 0
-316.108 -3.19705 0
-314.493 -3.19978 0
-312.879 -3.20152 0
-311.268 -3.19925 0
-309.652 -3.1964 0
-308.039 -3.19531 0
-306.426 -3.19421 0
-304.813 -3.19345 0
-303.202 -3.19788 0
-301.589 -3.1949 0
-299.976 -3.1955 0
-298.365 -3.19114 0
-296.751 -3.1904 0
-295.138 -3.19236 0
-293.524 -3.19091 0
-291.912 -3.18861 0
-290.296 -3.19035 0
-288.678 -3.18838 0
-287.066 -3.19019 0
-285.452 -3.18594 0
-283.838 -3.18553 0
-282.228 -3.18616 0
-280.613 -3.18254 0
-279 -3.18387 0
-277.384 -3.1832 0
-275.772 -3.1821 0
-274.161 -3.17882 0
-272.551 -3.17785 0
-270.937 -3.17426 0
-269.323 -3.17867 0
-267.71 -3.1788 0
-266.096 -3.17941 0
-264.485 -3.17692 0
-262.874 -3.17677 0
-261.253 -3.17262 0
-259.645 -3.1759 0
-258.026 -3.17592 0
-256.413 -3.17545 0
-254.798 -3.17679 0
-253.19 -3.17711 0
-251.576 -3.177 0
-249.958 -3.18134 0
-248.344 -3.16978 0
-246.735 -3.16901 0
-245.122 -3.17016 0
-243.506 -3.16594 0
-241.894 -3.17447 0
-240.282 -3.17412 0
-238.67 -3.16996 0
-237.056 -3.17318 0
-235.441 -3.17396 0
-233.826 -3.17114 0
-232.212 -3.17907 0
-230.598 -3.17507 0
-228.991 -3.17517 0
-227.372 -3.17229 0
-225.763 -3.16998 0
-224.145 -3.17639 0
-222.53 -3.1768 0
-220.916 -3.18453 0
-219.306 -3.18222 0
-217.691 -3.17914 0
-216.077 -3.18072 0
-214.466 -3.18283 0
-212.856 -3.1772 0
-211.243 -3.17918 0
-209.632 -3.18132 0
-208.021 -3.17903 0
-206.406 -3.17545 0
-204.793 -3.17747 0
-203.179 -3.17422 0
-201.563 -3.17227 0
-199.949 -3.17082 0
-198.335 -3.1767 0
-196.727 -3.17524 0
-195.116 -3.1784 0
-193.503 -3.17715 0
-191.892 -3.17901 0
-190.28 -3.17927 0
-188.664 -3.17559 0
-187.054 -3.17805 0
-185.439 -3.17599 0
-183.827 -3.17821 0
-182.211 -3.18032 0
-180.599 -3.1779 0
-178.987 -3.17986 0
-177.374 -3.17726 0
-175.761 -3.17813 0
-174.146 -3.18013 0
-172.534 -3.1849 0
-170.923 -3.18975 0
-169.311 -3.18221 0
-167.703 -3.18358 0
-166.094 -3.17798 0
-164.48 -3.17891 0
-162.866 -3.18003 0
-161.249 -3.18469 0
-159.638 -3.18637 0
-158.023 -3.18256 0
-156.411 -3.18499 0
-154.801 -3.18519 0
-153.188 -3.18169 0
-151.576 -3.18063 0
-149.963 -3.18496 0
-148.352 -3.1809 0
-146.741 -3.17858 0
-145.127 -3.1812 0
-143.511 -3.18859 0
-141.902 -3.1822 0
-140.287 -3.18505 0
-138.676 -3.18508 0
-137.063 -3.18593 0
-135.45 -3.18476 0
-133.837 -3.1846 0
-132.222 -3.18609 0
-130.608 -3.18651 0
-128.994 -3.18709 0
-127.384 -3.18951 0
-125.771 -3.18963 0
-124.159 -3.18551 0
-122.548 -3.18858 0
-120.937 -3.18752 0
-119.323 -3.1872 0
-117.711 -3.19105 0
-116.096 -3.19105 0
-114.479 -3.19219 0
-112.87 -3.19128 0
-111.259 -3.19124 0
-109.644 -3.19157 0
-108.033 -3.19032 0
-106.42 -3.18975 0
-104.808 -3.1899 0
-103.194 -3.19139 0
-101.58 -3.18883 0
-99.9678 -3.19132 0
-98.3534 -3.18754 0
-96.7446 -3.1885 0
-95.1288 -3.18822 0
-93.5159 -3.18906 0
-91.9014 -3.18903 0
-90.2924 -3.18724 0
-88.6782 -3.18917 0
-87.0678 -3.193 0
-85.4572 -3.1922 0
-83.8442 -3.1907 0
-82.2312 -3.19256 0
-80.6182 -3.1919 0
-79.0075 -3.19459 0
-77.395 -3.19513 0
-75.7842 -3.19384 0
-74.1699 -3.1973 0
-72.5595 -3.19367 0
-70.9479 -3.19866 0
-69.335 -3.19582 0
-67.7209 -3.19443 0
-66.1098 -3.19741 0
-64.4956 -3.19634 0
-62.8841 -3.19706 0
-61.2739 -3.1935 0
-59.6625 -3.19399 0
-58.0475 -3.19494 0
-56.4358 -3.19291 0
-54.8239 -3.19378 0
-53.2125 -3.19252 0
-51.5999 -3.19293 0
-49.9876 -3.19454 0
-48.3733 -3.19358 0
-46.7626 -3.19563 0
-45.1472 -3.19384 0
-43.5365 -3.19295 0
-41.9222 -3.19457 0
-40.3078 -3.1902 0
-38.6985 -3.19342 0
-37.0842 -3.18722 0
-35.4726 -3.19209 0
-33.8591 -3.18822 0
-32.2457 -3.1915 0
-30.6359 -3.19017 0
-29.0251 -3.1891 0
-27.4119 -3.1856 0
-25.7991 -3.18876 0
-24.1859 -3.18534 0
-22.5721 -3.18778 0
-20.9595 -3.18982 0
-19.3492 -3.19002 0
-17.7364 -3.19 0
-16.1232 -3.18601 0
-14.5115 -3.18453 0
-12.9005 -3.18657 0
-11.2882 -3.18607 0
-9.67433 -3.18657 0
-8.05988 -3.18907 0
-6.44711 -3.18789 0
-4.83438 -3.18952 0
-3.22524 -3.18847 0
-1.61213 -3.19448 0
0 -3.1907 0
-1089.33 101.101 0
-1089.24 90.8693 0
-1089.31 81.0115 0
-1089.33 71.389 0
-1089.28 62.0293 0
-1089.15 52.9844 0
-1088.93 44.3266 0
-1088.63 36.1188 0
-1088.27 28.4195 0
-1087.85 21.2586 0
-1087.37 14.6643 0
-1086.84 8.64053 0
-1086.29 3.17292 0
-1085.79 -1.80779 0
-1085.35 -6.40119 0
-1084.95 -10.6428 0
-1084.53 -14.5558 0
-1084.06 -18.1133 0
-1083.53 -21.2902 0
-1082.99 -24.0745 0
-1082.42 -26.4789 0
-1081.84 -28.5009 0
-1081.25 -30.1606 0
-1080.65 -31.4733 0
-1080.03 -32.4692 0
-1079.39 -33.1771 0
-1078.74 -33.622 0
-1078.05 -33.8289 0
-1077.33 -33.8241 0
-1076.59 -33.6263 0
-1075.8 -33.2587 0
-1074.98 -32.7345 0
-1074.11 -32.0795 0
-1073.2 -31.3051 0
-1072.26 -30.4255 0
-1071.27 -29.4493 0
-1070.24 -28.399 0
-1069.17 -27.2745 0
-1068.07 -26.0952 0
-1066.92 -24.8712 0
-1065.74 -23.6056 0
-1064.52 -22.3155 0
-1063.27 -21.0003 0
-1061.98 -19.6736 0
-1060.66 -18.3381 0
-1059.31 -17.0026 0
-1057.93 -15.672 0
-1056.53 -14.352 0
-1055.09 -13.0448 0
-1053.63 -11.7589 0
-1052.14 -10.4966 0
-1050.63 -9.25845 0
-1049.1 -8.04921 0
-1047.55 -6.87567 0
-1045.98 -5.73499 0
-1044.39 -4.62845 0
-1042.79 -3.5628 0
-1041.16 -2.53701 0
-1039.53 -1.54912 0
-1037.87 -0.606725 0
-1036.21 0.294185 0
-1034.53 1.14951 0
-1032.85 1.96001 0
-1031.15 2.72795 0
-1029.45 3.44905 0
-1027.73 4.12657 0
-1026.01 4.75641 0
-1024.28 5.344 0
-1022.55 5.88751 0
-1020.81 6.38502 0
-1019.07 6.83953 0
-1017.32 7.24987 0
-1015.57 7.61812 0
-1013.82 7.94537 0
-1012.06 8.23244 0
-1010.31 8.47876 0
-1008.55 8.68993 0
-1006.8 8.85959 0
-1005.04 8.99423 0
-1003.29 9.09162 0
-1001.54 9.15659 0
-999.786 9.18793 0
-998.04 9.18961 0
-996.293 9.1597 0
-994.548 9.10093 0
-992.807 9.01505 0
-991.071 8.90141 0
-989.337 8.76499 0
-987.609 8.60209 0
-985.884 8.41855 0
-984.163 8.21363 0
-982.446 7.99029 0
-980.735 7.74721 0
-979.028 7.48756 0
-977.326 7.2141 0
-975.628 6.92465 0
-973.937 6.62291 0
-972.25 6.31029 0
-970.567 5.987 0
-968.889 5.65528 0
-967.218 5.31553 0
-965.549 4.96873 0
-963.887 4.61508 0
-962.23 4.25934 0
-960.576 3.90005 0
-958.928 3.5398 0
-957.285 3.17715 0
-955.647 2.81488 0
-954.012 2.45283 0