<?xml version="1.0"?>
<VTKFile type="StructuredGrid"  version="0.1" byte_order="LittleEndian" compressor="vtkZLibDataCompressor">
  <StructuredGrid WholeExtent="0 700 0 30 0 0">
    <Piece Extent="0 700 0 30 0 0">
      <PointData Vectors="Velocity">
        <DataArray type="Float32" Name="Velocity" NumberOfComponents="3" format="ascii">
-1070.62 101.219 0
-1071.03 91.1866 0
-1071.49 81.2852 0
-1071.97 71.6028 0
-1072.48 62.1773 0
-1073.02 53.075 0
-1073.62 44.3774 0
-1074.24 36.1489 0
-1074.87 28.4158 0
-1075.48 21.2041 0
-1076.08 14.5337 0
-1076.64 8.42798 0
-1077.16 2.90833 0
-1077.56 -2.06424 0
-1077.75 -6.6335 0
-1078.03 -10.9406 0
-1078.28 -14.9231 0
-1078.51 -18.5536 0
-1078.74 -21.813 0
-1078.96 -24.6742 0
-1079.16 -27.1485 0
-1079.31 -29.2484 0
-1079.41 -31.0021 0
-1079.47 -32.4229 0
-1079.46 -33.5326 0
-1079.38 -34.3629 0
-1079.23 -34.9449 0
-1079.01 -35.2857 0
-1078.71 -35.4196 0
-1078.33 -35.3633 0
-1077.89 -35.1358 0
-1077.36 -34.752 0
-1076.77 -34.2269 0
-1076.11 -33.58 0
-1075.38 -32.8257 0
-1074.58 -31.9705 0
-1073.71 -31.0317 0
-1072.79 -30.017 0
-1071.81 -28.9423 0
-1070.76 -27.8128 0
-1069.67 -26.6395 0
-1068.52 -25.4358 0
-1067.31 -24.2012 0
-1066.07 -22.9483 0
-1064.77 -21.6822 0
-1063.43 -20.4114 0
-1062.05 -19.1372 0
-1060.64 -17.8702 0
-1059.18 -16.6096 0
-1057.69 -15.3637 0
-1056.17 -14.1368 0
-1054.62 -12.9328 0
-1053.03 -11.7535 0
-1051.43 -10.6013 0
-1049.8 -9.48132 0
-1048.14 -8.39107 0
-1046.47 -7.33548 0
-1044.77 -6.31865 0
-1043.06 -5.33715 0
-1041.33 -4.39733 0
-1039.58 -3.4982 0
-1037.83 -2.64005 0
-1036.05 -1.82298 0
-1034.27 -1.05125 0
-1032.48 -0.32154 0
-1030.68 0.366866 0
-1028.87 1.01236 0
-1027.06 1.612 0
-1025.24 2.1713 0
-1023.41 2.68388 0
-1021.58 3.15732 0
-1019.75 3.58807 0
-1017.92 3.97603 0
-1016.09 4.32876 0
-1014.25 4.63578 0
-1012.42 4.90536 0
-1010.58 5.13987 0
-1008.75 5.33407 0
-1006.92 5.49409 0
-1005.09 5.61816 0
-1003.27 5.70514 0
-1001.45 5.76143 0
-999.639 5.78753 0
-997.829 5.78358 0
-996.024 5.74902 0
-994.225 5.68601 0
-992.432 5.59708 0
-990.645 5.48322 0
-988.864 5.34368 0
-987.088 5.18029 0
-985.319 4.9956 0
-983.56 4.79106 0
-981.806 4.56874 0
-980.06 4.33017 0
-978.322 4.07405 0
-976.588 3.80306 0
-974.863 3.5184 0
-973.146 3.22209 0
-971.436 2.91336 0
-969.735 2.59192 0
-968.041 2.26378 0
-966.355 1.9299 0
-964.674 1.58925 0
-963 1.24305 0
-961.335 0.892253 0
-959.676 0.538603 0
-958.023 0.185688 0
-956.379 -0.172885 0
-954.74 -0.529425 0
-953.107 -0.886073 0
-951.48 -1.23911 0
-949.859 -1.59003 0
-948.243 -1.93793 0
-946.632 -2.28228 0
-945.027 -2.62001 0
-943.427 -2.9534 0
-941.83 -3.27957 0
-940.239 -3.59869 0
-938.652 -3.91134 0
-937.069 -4.21336 0
-935.489 -4.51028 0
-933.912 -4.7965 0
-932.338 -5.07231 0
-930.766 -5.33847 0
-929.199 -5.59629 0
-927.633 -5.8436 0
-926.069 -6.08039 0
-924.508 -6.30531 0
-922.947 -6.52108 0
-921.391 -6.72494 0
-919.834 -6.91798 0
-918.278 -7.09774 0
-916.724 -7.26876 0
-915.169 -7.42663 0
-913.616 -7.57242 0
-912.064 -7.70794 0
-910.512 -7.83293 0
-908.957 -7.94749 0
-907.403 -8.0488 0
-905.85 -8.13916 0
-904.295 -8.22125 0
-902.739 -8.29117 0
-901.184 -8.35198 0
-899.629 -8.40027 0
-898.072 -8.43983 0
-896.515 -8.47081 0
-894.953 -8.49269 0
-893.393 -8.50376 0
-891.831 -8.50765 0
-890.267 -8.50179 0
-888.703 -8.48832 0
-887.135 -8.46706 0
-885.566 -8.43676 0
-883.996 -8.40115 0
-882.425 -8.35708 0
-880.849 -8.30682 0
-879.274 -8.2514 0
-877.697 -8.18922 0
-876.118 -8.12074 0
-874.537 -8.04806 0
-872.955 -7.96934 0
-871.37 -7.88914 0
-869.782 -7.80091 0
-868.195 -7.71324 0
-866.607 -7.6196 0
-865.015 -7.51993 0
-863.42 -7.42025 0
-861.823 -7.31687 0
-860.225 -7.20965 0
-858.625 -7.1037 0
-857.025 -6.99471 0
-855.42 -6.88625 0
-853.817 -6.77495 0
-852.209 -6.6623 0
-850.599 -6.55071 0
-848.989 -6.43509 0
-847.378 -6.3226 0
-845.766 -6.20726 0
-844.151 -6.09613 0
-842.534 -5.98402 0
-840.914 -5.87399 0
-839.293 -5.76298 0
-837.674 -5.6553 0
-836.052 -5.5468 0
-834.43 -5.44111 0
-832.805 -5.33562 0
-831.182 -5.23546 0
-829.557 -5.13289 0
-827.929 -5.03374 0
-826.3 -4.93673 0
-824.671 -4.84823 0
-823.04 -4.75778 0
-821.412 -4.66746 0
-819.782 -4.58139 0
-818.149 -4.5004 0
-816.515 -4.42169 0
-814.88 -4.34318 0
-813.246 -4.26974 0
-811.613 -4.19926 0
-809.979 -4.13336 0
-808.343 -4.06921 0
-806.709 -4.00975 0
-805.075 -3.95111 0
-803.438 -3.89674 0
-801.804 -3.84822 0
-800.168 -3.79733 0
-798.531 -3.75336 0
-796.895 -3.71207 0
-795.26 -3.67663 0
-793.622 -3.64123 0
-791.985 -3.61034 0
-790.349 -3.58242 0
-788.713 -3.55871 0
-787.076 -3.53366 0
-785.439 -3.51085 0
-783.805 -3.49523 0
-782.172 -3.47995 0
-780.538 -3.4699 0
-778.903 -3.46334 0
-777.268 -3.45422 0
-775.634 -3.45449 0
-774.001 -3.455 0
-772.368 -3.45798 0
-770.737 -3.46114 0
-769.107 -3.46762 0
-767.478 -3.47814 0
-765.846 -3.49026 0
-764.215 -3.50387 0
-762.586 -3.51984 0
-760.957 -3.53442 0
-759.324 -3.55571 0
-757.698 -3.57332 0
-756.072 -3.59711 0
-754.444 -3.61842 0
-752.815 -3.64869 0
-751.191 -3.6756 0
-749.566 -3.70282 0
-747.94 -3.73141 0
-746.317 -3.76245 0
-744.692 -3.79489 0
-743.068 -3.82588 0
-741.445 -3.85935 0
-739.825 -3.89396 0
-738.203 -3.92641 0
-736.581 -3.96329 0
-734.963 -3.99849 0
-733.344 -4.03429 0
-731.725 -4.071 0
-730.107 -4.10582 0
-728.487 -4.1438 0
-726.865 -4.18274 0
-725.252 -4.2184 0
-723.633 -4.25361 0
-722.017 -4.29079 0
-720.401 -4.32825 0
-718.784 -4.36375 0
-717.168 -4.39965 0
-715.551 -4.43485 0
-713.937 -4.47043 0
-712.323 -4.50724 0
-710.711 -4.54013 0
-709.096 -4.57258 0
-707.479 -4.61017 0
-705.867 -4.64211 0
-704.255 -4.67795 0
-702.643 -4.70484 0
-701.03 -4.73703 0
-699.419 -4.76555 0
-697.804 -4.79266 0
-696.192 -4.82488 0
-694.583 -4.84901 0
-692.971 -4.87633 0
-691.358 -4.90147 0
-689.748 -4.92844 0
-688.132 -4.94976 0
-686.522 -4.97307 0
-684.912 -4.99532 0
-683.304 -5.01781 0
-681.694 -5.04047 0
-680.082 -5.0599 0
-678.472 -5.07133 0
-676.863 -5.08997 0
-675.252 -5.10685 0
-673.642 -5.1234 0
-672.032 -5.13712 0
-670.419 -5.14721 0
-668.808 -5.16325 0
-667.198 -5.173 0
-665.588 -5.18224 0
-663.976 -5.1945 0
-662.362 -5.20174 0
-660.753 -5.21054 0
-659.143 -5.21794 0
-657.532 -5.2217 0
-655.924 -5.22866 0
-654.311 -5.23036 0
-652.701 -5.23541 0
-651.092 -5.23769 0
-649.479 -5.23985 0
-647.865 -5.23745 0
-646.252 -5.24151 0
-644.644 -5.24021 0
-643.036 -5.23732 0
-641.422 -5.24049 0
-639.807 -5.23693 0
-638.195 -5.23316 0
-636.584 -5.22591 0
-634.971 -5.22341 0
-633.356 -5.21751 0
-631.741 -5.20992 0
-630.131 -5.20525 0
-628.518 -5.1976 0
-626.904 -5.19127 0
-625.291 -5.18306 0
-623.681 -5.17722 0
-622.063 -5.16926 0
-620.45 -5.15963 0
-618.836 -5.15246 0
-617.223 -5.14222 0
-615.611 -5.12808 0
-613.999 -5.11586 0
-612.385 -5.10848 0
-610.77 -5.09331 0
-609.155 -5.08193 0
-607.539 -5.06634 0
-605.922 -5.0574 0
-604.305 -5.04817 0
-602.689 -5.03994 0
-601.076 -5.03252 0
-599.461 -5.01296 0
-597.846 -4.99982 0
-596.227 -4.99024 0
-594.611 -4.98128 0
-592.994 -4.97127 0
-591.376 -4.95748 0
-589.761 -4.9452 0
-588.145 -4.93245 0
-586.531 -4.91684 0
-584.918 -4.90537 0
-583.298 -4.89626 0
-581.681 -4.88481 0
-580.063 -4.87123 0
-578.445 -4.85676 0
-576.826 -4.84852 0
-575.21 -4.83926 0
-573.594 -4.83098 0
-571.976 -4.81867 0
-570.356 -4.8117 0
-568.741 -4.79863 0
-567.123 -4.79328 0
-565.507 -4.78315 0
-563.887 -4.77607 0
-562.269 -4.7613 0
-560.654 -4.75356 0
-559.035 -4.74314 0
-557.417 -4.73549 0
-555.802 -4.73229 0
-554.181 -4.72181 0
-552.563 -4.71746 0
-550.94 -4.71225 0
-549.326 -4.70584 0
-547.705 -4.69853 0
-546.089 -4.69105 0
-544.471 -4.68751 0
-542.851 -4.686 0
-541.232 -4.67818 0
-539.617 -4.67518 0
-538.003 -4.67091 0
-536.379 -4.66552 0
-534.763 -4.66429 0
-533.142 -4.65827 0
-531.526 -4.65768 0
-529.903 -4.65638 0
-528.288 -4.65633 0
-526.674 -4.65144 0
-525.055 -4.65305 0
-523.44 -4.65165 0
-521.822 -4.64515 0
-520.203 -4.64628 0
-518.583 -4.64294 0
-516.964 -4.64032 0
-515.343 -4.6383 0
-513.728 -4.63998 0
-512.111 -4.63756 0
-510.494 -4.64002 0
-508.876 -4.64499 0
-507.263 -4.6451 0
-505.648 -4.64839 0
-504.029 -4.64699 0
-502.413 -4.65071 0
-500.797 -4.64837 0
-499.175 -4.64854 0
-497.559 -4.64929 0
-495.939 -4.64957 0
-494.318 -4.65673 0
-492.703 -4.65863 0
-491.088 -4.66083 0
-489.472 -4.66466 0
-487.858 -4.66837 0
-486.239 -4.66862 0
-484.617 -4.67153 0
-483.005 -4.677 0
-481.385 -4.68154 0
-479.768 -4.68099 0
-478.147 -4.6823 0
-476.535 -4.68904 0
-474.916 -4.69515 0
-473.298 -4.69899 0
-471.683 -4.70562 0
-470.066 -4.70369 0
-468.456 -4.7106 0
-466.843 -4.71187 0
-465.228 -4.71983 0
-463.61 -4.71867 0
-461.995 -4.72321 0
-460.373 -4.72737 0
-458.757 -4.73412 0
-457.141 -4.73864 0
-455.524 -4.74599 0
-453.909 -4.75175 0
-452.296 -4.75323 0
-450.68 -4.75777 0
-449.06 -4.76721 0
-447.445 -4.76573 0
-445.825 -4.7729 0
-444.206 -4.77801 0
-442.594 -4.78125 0
-440.981 -4.78471 0
-439.368 -4.78511 0
-437.746 -4.78603 0
-436.131 -4.79419 0
-434.514 -4.78951 0
-432.897 -4.79493 0
-431.28 -4.79703 0
-429.667 -4.79982 0
-428.049 -4.80011 0
-426.433 -4.80505 0
-424.823 -4.80604 0
-423.208 -4.8066 0
-421.589 -4.81134 0
-419.973 -4.81449 0
-418.363 -4.82271 0
-416.751 -4.82432 0
-415.134 -4.82538 0
-413.517 -4.82455 0
-411.901 -4.82533 0
-410.286 -4.83022 0
-408.674 -4.83163 0
-407.06 -4.83341 0
-405.442 -4.83547 0
-403.827 -4.83574 0
-402.213 -4.84029 0
-400.598 -4.84115 0
-398.982 -4.84334 0
-397.363 -4.84805 0
-395.749 -4.8459 0
-394.138 -4.84313 0
-392.523 -4.84599 0
-390.908 -4.84942 0
-389.295 -4.84736 0
-387.675 -4.84978 0
-386.064 -4.84969 0
-384.445 -4.84526 0
-382.828 -4.85476 0
-381.215 -4.85244 0
-379.598 -4.85064 0
-377.984 -4.84107 0
-376.368 -4.84283 0
-374.75 -4.84971 0
-373.134 -4.84857 0
-371.517 -4.8548 0
-369.904 -4.84969 0
-368.292 -4.84839 0
-366.676 -4.85402 0
-365.062 -4.84988 0
-363.448 -4.85157 0
-361.832 -4.84662 0
-360.216 -4.84551 0
-358.601 -4.84938 0
-356.983 -4.84668 0
-355.362 -4.84548 0
-353.754 -4.84228 0
-352.141 -4.84566 0
-350.528 -4.84331 0
-348.914 -4.8388 0
-347.292 -4.83776 0
-345.678 -4.83624 0
-344.061 -4.83031 0
-342.443 -4.8347 0
-340.828 -4.84174 0
-339.213 -4.84082 0
-337.6 -4.83881 0
-335.988 -4.84217 0
-334.368 -4.83133 0
-332.748 -4.83644 0
-331.131 -4.8346 0
-329.517 -4.83538 0
-327.903 -4.82869 0
-326.288 -4.83144 0
-324.668 -4.82609 0
-323.053 -4.82821 0
-321.435 -4.8221 0
-319.819 -4.82733 0
-318.204 -4.82631 0
-316.588 -4.82528 0
-314.97 -4.82426 0
-313.356 -4.81947 0
-311.741 -4.81996 0
-310.127 -4.81594 0
-308.511 -4.81777 0
-306.895 -4.82104 0
-305.281 -4.81308 0
-303.66 -4.80805 0
-302.046 -4.80903 0
-300.431 -4.80754 0
-298.82 -4.80786 0
-297.202 -4.80602 0
-295.587 -4.80143 0
-293.971 -4.80559 0
-292.357 -4.81028 0
-290.738 -4.81044 0
-289.123 -4.81048 0
-287.505 -4.80527 0
-285.889 -4.80411 0
-284.277 -4.80158 0
-282.656 -4.80302 0
-281.047 -4.8033 0
-279.427 -4.79625 0
-277.809 -4.79879 0
-276.197 -4.79843 0
-274.582 -4.79648 0
-272.969 -4.78954 0
-271.354 -4.79406 0
-269.736 -4.79097 0
-268.12 -4.79281 0
-266.505 -4.79494 0
-264.889 -4.79425 0
-263.272 -4.79251 0
-261.66 -4.79505 0
-260.042 -4.79028 0
-258.425 -4.78941 0
-256.813 -4.78897 0
-255.198 -4.78669 0
-253.577 -4.78817 0
-251.961 -4.78405 0
-250.343 -4.78359 0
-248.724 -4.78409 0
-247.108 -4.78334 0
-245.495 -4.78921 0
-243.88 -4.78474 0
-242.264 -4.77908 0
-240.652 -4.77898 0
-239.031 -4.77743 0
-237.416 -4.78377 0
-235.799 -4.78806 0
-234.185 -4.78824 0
-232.566 -4.78575 0
-230.952 -4.78577 0
-229.333 -4.78511 0
-227.72 -4.78737 0
-226.103 -4.79319 0
-224.49 -4.78937 0
-222.877 -4.79197 0
-221.262 -4.7886 0
-219.651 -4.78862 0
-218.036 -4.78632 0
-216.418 -4.7821 0
-214.797 -4.78919 0
-213.183 -4.78915 0
-211.567 -4.79267 0
-209.95 -4.78639 0
-208.336 -4.78094 0
-206.719 -4.78288 0
-205.103 -4.78438 0
-203.492 -4.7774 0
-201.88 -4.7785 0
-200.264 -4.78535 0
-198.642 -4.78533 0
-197.031 -4.78565 0
-195.416 -4.78813 0
-193.802 -4.79025 0
-192.191 -4.79308 0
-190.572 -4.792 0
-188.959 -4.78786 0
-187.343 -4.7833 0
-185.725 -4.78058 0
-184.105 -4.78281 0
-182.487 -4.78949 0
-180.875 -4.78745 0
-179.263 -4.79213 0
-177.645 -4.79301 0
-176.029 -4.79246 0
-174.411 -4.7886 0
-172.802 -4.79357 0
-171.19 -4.79392 0
-169.576 -4.79595 0
-167.952 -4.79514 0
-166.339 -4.79448 0
-164.724 -4.79118 0
-163.105 -4.79512 0
-161.485 -4.78879 0
-159.874 -4.7949 0
-158.262 -4.78754 0
-156.647 -4.79058 0
-155.035 -4.78951 0
-153.421 -4.79689 0
-151.806 -4.78924 0
-150.192 -4.79231 0
-148.576 -4.78958 0
-146.962 -4.78974 0
-145.345 -4.79183 0
-143.727 -4.79002 0
-142.11 -4.78433 0
-140.499 -4.79126 0
-138.884 -4.79138 0
-137.262 -4.79043 0
-135.647 -4.79408 0
-134.038 -4.79295 0
-132.426 -4.79503 0
-130.805 -4.79327 0
-129.191 -4.7948 0
-127.581 -4.79521 0
-125.957 -4.79268 0
-124.346 -4.7912 0
-122.73 -4.79823 0
-121.116 -4.79799 0
-119.498 -4.79873 0
-117.885 -4.79739 0
-116.269 -4.7962 0
-114.652 -4.79672 0
-113.039 -4.79819 0
-111.424 -4.7972 0
-109.814 -4.79917 0
-108.196 -4.79608 0
-106.579 -4.79638 0
-104.968 -4.7953 0
-103.354 -4.79446 0
-101.737 -4.79395 0
-100.124 -4.79316 0
-98.5066 -4.79153 0
-96.8913 -4.79352 0
-95.2747 -4.79603 0
-93.6593 -4.79609 0
-92.04 -4.79625 0
-90.4254 -4.79736 0
-88.8123 -4.79808 0
-87.1965 -4.79679 0
-85.5826 -4.80084 0
-83.9687 -4.79955 0
-82.3563 -4.79583 0
-80.7421 -4.79813 0
-79.1277 -4.79554 0
-77.5163 -4.7972 0
-75.8973 -4.79463 0
-74.28 -4.79726 0
-72.6663 -4.80078 0
-71.0521 -4.80032 0
-69.4389 -4.79687 0
-67.8201 -4.79571 0
-66.2072 -4.79381 0
-64.5924 -4.79998 0
-62.9783 -4.79717 0
-61.3627 -4.7988 0
-59.7494 -4.79836 0
-58.1339 -4.79983 0
-56.5201 -4.79837 0
-54.9051 -4.79913 0
-53.2876 -4.79792 0
-51.6755 -4.79813 0
-50.0616 -4.79694 0
-48.4469 -4.80042 0
-46.8322 -4.79784 0
-45.2131 -4.79338 0
-43.5963 -4.79925 0
-41.9814 -4.79991 0
-40.3649 -4.79757 0
-38.7527 -4.79757 0
-37.1366 -4.8016 0
-35.5267 -4.79402 0
-33.9105 -4.79584 0
-32.3003 -4.7954 0
-30.6861 -4.79432 0
-29.0665 -4.79589 0
-27.4532 -4.79663 0
-25.8401 -4.7926 0
-24.2229 -4.79514 0
-22.6078 -4.79418 0
-20.9907 -4.79214 0
-19.3763 -4.78865 0
-17.7649 -4.79052 0
-16.152 -4.79531 0
-14.5369 -4.79162 0
-12.9191 -4.79038 0
-11.3025 -4.79665 0
-9.6849 -4.79421 0
-8.07067 -4.7903 0
-6.45865 -4.79546 0
-4.84355 -4.79411 0
-3.23253 -4.79538 0
-1.61932 -4.79608 0
0 -4.7991 0
-1080.65 101.656 0
-1080.95 91.5727 0
-1081.24 81.6443 0
-1081.52 71.9381 0
-1081.76 62.4812 0
-1081.97 53.3339 0
-1082.13 44.5833 0
-1082.26 36.3038 0
-1082.37 28.5323 0
-1082.44 21.2939 0
-1082.46 14.6107 0
-1082.43 8.50087 0
-1082.34 2.98366 0
-1082.24 -1.96281 0
-1082.25 -6.53877 0
-1082.19 -10.8548 0
-1082.11 -14.8455 0
-1082 -18.4817 0
-1081.86 -21.7398 0
-1081.69 -24.5979 0
-1081.5 -27.0628 0
-1081.29 -29.1482 0
-1081.05 -30.8734 0
-1080.78 -32.2582 0
-1080.47 -33.3258 0
-1080.12 -34.1096 0
-1079.72 -34.6316 0
-1079.27 -34.9143 0
-1078.77 -34.9858 0
-1078.21 -34.8674 0
-1077.6 -34.5778 0
-1076.93 -34.1293 0
-1076.2 -33.5426 0
-1075.42 -32.8336 0
-1074.59 -32.0183 0
-1073.7 -31.104 0
-1072.75 -30.1068 0
-1071.76 -29.039 0
-1070.72 -27.9072 0
-1069.63 -26.727 0
-1068.49 -25.5058 0
-1067.31 -24.2533 0
-1066.09 -22.9723 0
-1064.82 -21.6757 0
-1063.52 -20.3674 0
-1062.18 -19.0549 0
-1060.8 -17.7455 0
-1059.39 -16.443 0
-1057.95 -15.1492 0
-1056.47 -13.8706 0
-1054.97 -12.6154 0
-1053.44 -11.3832 0
-1051.89 -10.1781 0
-1050.31 -9.00339 0
-1048.71 -7.85998 0
-1047.09 -6.74993 0
-1045.45 -5.6753 0
-1043.79 -4.6403 0
-1042.12 -3.6444 0
-1040.43 -2.68891 0
-1038.72 -1.77673 0
-1037.01 -0.905956 0
-1035.28 -0.0784368 0
-1033.54 0.704208 0
-1031.79 1.4421 0
-1030.03 2.13723 0
-1028.27 2.78948 0
-1026.49 3.39629 0
-1024.72 3.95866 0
-1022.93 4.47745 0
-1021.15 4.95216 0
-1019.36 5.38487 0
-1017.56 5.77587 0
-1015.77 6.12711 0
-1013.97 6.43655 0
-1012.17 6.70592 0
-1010.38 6.93712 0
-1008.58 7.12952 0
-1006.79 7.2877 0
-1005 7.40825 0
-1003.21 7.49286 0
-1001.42 7.54556 0
-999.634 7.56775 0
-997.853 7.55837 0
-996.077 7.51888 0
-994.304 7.45182 0
-992.536 7.35646 0
-990.774 7.23642 0
-989.016 7.09201 0
-987.263 6.92257 0
-985.515 6.73168 0
-983.773 6.52182 0
-982.037 6.29274 0
-980.307 6.04727 0
-978.584 5.78539 0
-976.865 5.50753 0
-975.154 5.21576 0
-973.448 4.91058 0
-971.749 4.59594 0
-970.056 4.26862 0
-968.37 3.93498 0
-966.689 3.59305 0
-965.015 3.24603 0
-963.346 2.89417 0
-961.684 2.53602 0
-960.027 2.17751 0
-958.375 1.81599 0
-956.732 1.45312 0
-955.093 1.0903 0
-953.458 0.729358 0
-951.828 0.370142 0
-950.204 0.0129665 0
-948.585 -0.338364 0
-946.969 -0.687548 0
-945.359 -1.0303 0
-943.753 -1.36655 0
-942.151 -1.6977 0
-940.552 -2.02102 0
-938.956 -2.33624 0
-937.365 -2.64392 0
-935.777 -2.94166 0
-934.189 -3.23106 0
-932.606 -3.51042 0
-931.026 -3.7801 0
-929.447 -4.03917 0
-927.871 -4.28826 0
-926.297 -4.52689 0
-924.725 -4.75535 0
-923.156 -4.97123 0
-921.585 -5.17653 0
-920.017 -5.36957 0
-918.45 -5.55201 0
-916.885 -5.72401 0
-915.32 -5.88144 0
-913.755 -6.02869 0
-912.191 -6.16471 0
-910.628 -6.28918 0
-909.063 -6.40253 0
-907.499 -6.50351 0
-905.934 -6.59471 0
-904.369 -6.67565 0
-902.805 -6.74541 0
-901.24 -6.80499 0
-899.674 -6.85401 0
-898.107 -6.8932 0
-896.539 -6.9223 0
-894.97 -6.94165 0
-893.4 -6.9529 0
-891.829 -6.95521 0
-890.258 -6.94822 0
-888.685 -6.93476 0
-887.111 -6.90884 0
-885.535 -6.87879 0
-883.956 -6.84059 0
-882.378 -6.79558 0
-880.798 -6.7449 0
-879.217 -6.68614 0
-877.633 -6.62253 0
-876.048 -6.55347 0
-874.464 -6.47846 0
-872.875 -6.39896 0
-871.286 -6.31588 0
-869.696 -6.22695 0
-868.103 -6.13575 0
-866.511 -6.03971 0
-864.916 -5.94105 0
-863.318 -5.83767 0
-861.72 -5.73283 0
-860.12 -5.62558 0
-858.52 -5.51705 0
-856.916 -5.40624 0
-855.311 -5.29539 0
-853.704 -5.18164 0
-852.097 -5.06811 0
-850.487 -4.95535 0
-848.878 -4.84054 0
-847.266 -4.72528 0
-845.652 -4.61072 0
-844.038 -4.4955 0
-842.422 -4.38114 0
-840.804 -4.27016 0
-839.187 -4.15903 0
-837.568 -4.05001 0
-835.947 -3.94003 0
-834.326 -3.83283 0
-832.705 -3.72809 0
-831.081 -3.62539 0
-829.458 -3.52324 0
-827.832 -3.42382 0
-826.206 -3.32513 0
-824.58 -3.23398 0
-822.954 -3.1439 0
-821.325 -3.05366 0
-819.697 -2.96674 0
-818.067 -2.88308 0
-816.438 -2.80461 0
-814.807 -2.72554 0
-813.176 -2.65308 0
-811.546 -2.58341 0
-809.914 -2.51481 0
-808.282 -2.45139 0
-806.651 -2.39117 0
-805.019 -2.33226 0
-803.387 -2.27743 0
-801.753 -2.22749 0
-800.121 -2.17981 0
-798.489 -2.13461 0
-796.856 -2.0925 0
-795.224 -2.05566 0
-793.59 -2.02157 0
-791.958 -1.99067 0
-790.324 -1.96283 0
-788.69 -1.93735 0
-787.055 -1.91329 0
-785.423 -1.89206 0
-783.792 -1.87622 0
-782.159 -1.86157 0
-780.529 -1.85303 0
-778.897 -1.84489 0
-777.266 -1.8372 0
-775.635 -1.83535 0
-774.004 -1.83618 0
-772.374 -1.84153 0
-770.744 -1.84549 0
-769.114 -1.85311 0
-767.485 -1.86373 0
-765.857 -1.87561 0
-764.229 -1.88958 0
-762.602 -1.90586 0
-760.973 -1.92154 0
-759.346 -1.94112 0
-757.72 -1.96381 0
-756.094 -1.98375 0
-754.468 -2.00943 0
-752.845 -2.03876 0
-751.219 -2.06487 0
-749.594 -2.09448 0
-747.97 -2.12361 0
-746.346 -2.1537 0
-744.723 -2.18622 0
-743.1 -2.21769 0
-741.479 -2.2534 0
-739.859 -2.28839 0
-738.239 -2.32028 0
-736.62 -2.35645 0
-735 -2.39232 0
-733.381 -2.43058 0
-731.762 -2.467 0
-730.142 -2.50124 0
-728.524 -2.53906 0
-726.906 -2.57927 0
-725.285 -2.61435 0
-723.669 -2.65039 0
-722.052 -2.68803 0
-720.434 -2.72791 0
-718.818 -2.76135 0
-717.204 -2.79848 0
-715.588 -2.8349 0
-713.972 -2.86973 0
-712.358 -2.90618 0
-710.742 -2.94056 0
-709.13 -2.97549 0
-707.516 -3.00958 0
-705.9 -3.04372 0
-704.286 -3.0774 0
-702.671 -3.10759 0
-701.058 -3.13593 0
-699.445 -3.16728 0
-697.834 -3.19628 0
-696.22 -3.2277 0
-694.608 -3.25171 0
-692.996 -3.28011 0
-691.383 -3.30369 0
-689.77 -3.32891 0
-688.157 -3.35294 0
-686.545 -3.3766 0
-684.934 -3.39905 0
-683.322 -3.42194 0
-681.711 -3.44428 0
-680.099 -3.46027 0
-678.488 -3.47613 0
-676.877 -3.49376 0
-675.267 -3.50917 0
-673.654 -3.52594 0
-672.043 -3.53761 0
-670.43 -3.55241 0
-668.819 -3.56705 0
-667.208 -3.5754 0
-665.597 -3.58942 0
-663.985 -3.59776 0
-662.375 -3.60622 0
-660.761 -3.61428 0
-659.15 -3.62092 0
-657.542 -3.62958 0
-655.927 -3.63237 0
-654.316 -3.63426 0
-652.705 -3.63742 0
-651.093 -3.64 0
-649.48 -3.64287 0
-647.868 -3.64079 0
-646.255 -3.64438 0
-644.643 -3.64431 0
-643.032 -3.64298 0
-641.42 -3.64004 0
-639.807 -3.6392 0
-638.194 -3.63558 0
-636.58 -3.62671 0
-634.965 -3.62677 0
-633.351 -3.61875 0
-631.737 -3.61458 0
-630.123 -3.6071 0
-628.51 -3.59954 0
-626.896 -3.59336 0
-625.284 -3.58722 0
-623.673 -3.57797 0
-622.057 -3.56892 0
-620.443 -3.5597 0
-618.829 -3.55078 0
-617.212 -3.54216 0
-615.6 -3.52885 0
-613.988 -3.51836 0
-612.372 -3.5073 0
-610.758 -3.49351 0
-609.142 -3.47864 0
-607.527 -3.46763 0
-605.912 -3.45698 0
-604.295 -3.44697 0
-602.681 -3.43761 0
-601.062 -3.429 0
-599.446 -3.41439 0
-597.832 -3.40028 0
-596.216 -3.3901 0
-594.601 -3.37867 0
-592.985 -3.36796 0
-591.368 -3.35459 0
-589.751 -3.34327 0
-588.135 -3.33148 0
-586.52 -3.31756 0
-584.904 -3.3057 0
-583.285 -3.29407 0
-581.668 -3.28064 0
-580.05 -3.26939 0
-578.432 -3.2549 0
-576.818 -3.2469 0
-575.203 -3.23882 0
-573.585 -3.22803 0
-571.967 -3.21738 0
-570.349 -3.20671 0
-568.733 -3.19711 0
-567.117 -3.19089 0
-565.5 -3.18166 0
-563.881 -3.17044 0
-562.26 -3.16224 0
-560.643 -3.15162 0
-559.027 -3.14058 0
-557.41 -3.13578 0
-555.792 -3.1272 0
-554.175 -3.12014 0
-552.556 -3.11422 0
-550.939 -3.10889 0
-549.319 -3.10198 0
-547.702 -3.09658 0
-546.085 -3.08821 0
-544.467 -3.08344 0
-542.849 -3.08276 0
-541.23 -3.07637 0
-539.614 -3.07372 0
-537.997 -3.06958 0
-536.382 -3.06178 0
-534.76 -3.05821 0
-533.143 -3.05512 0
-531.525 -3.05613 0
-529.908 -3.05363 0
-528.289 -3.05173 0
-526.672 -3.05036 0
-525.052 -3.04853 0
-523.434 -3.04752 0
-521.818 -3.0409 0
-520.198 -3.04141 0
-518.582 -3.03998 0
-516.964 -3.03823 0
-515.349 -3.03653 0
-513.731 -3.03724 0
-512.112 -3.03428 0
-510.495 -3.03884 0
-508.877 -3.04181 0
-507.263 -3.04386 0
-505.645 -3.04365 0
-504.03 -3.04102 0
-502.414 -3.04505 0
-500.797 -3.04544 0
-499.18 -3.04661 0
-497.559 -3.04951 0
-495.941 -3.04516 0
-494.324 -3.05056 0
-492.706 -3.05701 0
-491.089 -3.06033 0
-489.474 -3.06483 0
-487.86 -3.06349 0
-486.241 -3.06591 0
-484.625 -3.07 0
-483.007 -3.07401 0
-481.386 -3.07707 0
-479.771 -3.07824 0
-478.157 -3.08573 0
-476.54 -3.08794 0
-474.924 -3.09188 0
-473.305 -3.09862 0
-471.687 -3.10219 0
-470.074 -3.10466 0
-468.457 -3.11071 0
-466.843 -3.11211 0
-465.226 -3.11663 0
-463.608 -3.11772 0
-461.995 -3.12292 0
-460.379 -3.12725 0
-458.764 -3.13278 0
-457.146 -3.13884 0
-455.53 -3.14505 0
-453.913 -3.15147 0
-452.297 -3.15416 0
-450.68 -3.15829 0
-449.063 -3.16554 0
-447.447 -3.16559 0
-445.831 -3.17073 0
-444.213 -3.177 0
-442.597 -3.1798 0
-440.981 -3.1828 0
-439.364 -3.18778 0
-437.752 -3.18831 0
-436.136 -3.19053 0
-434.518 -3.19283 0
-432.904 -3.19121 0
-431.289 -3.19619 0
-429.671 -3.19985 0
-428.055 -3.2004 0
-426.44 -3.20521 0
-424.824 -3.20677 0
-423.212 -3.20788 0
-421.6 -3.21038 0
-419.982 -3.21731 0
-418.367 -3.22272 0
-416.752 -3.22394 0
-415.136 -3.22422 0
-413.519 -3.22527 0
-411.906 -3.22503 0
-410.294 -3.22955 0
-408.676 -3.22992 0
-407.061 -3.23439 0
-405.444 -3.23403 0
-403.829 -3.23648 0
-402.212 -3.23979 0
-400.599 -3.24121 0
-398.987 -3.2414 0
-397.37 -3.24496 0
-395.751 -3.24511 0
-394.138 -3.24825 0
-392.522 -3.24776 0
-390.907 -3.24914 0
-389.292 -3.24657 0
-387.678 -3.24931 0
-386.061 -3.24999 0
-384.447 -3.24682 0
-382.834 -3.25154 0
-381.215 -3.25023 0
-379.594 -3.24594 0
-377.981 -3.24048 0
-376.369 -3.24407 0
-374.755 -3.24766 0
-373.138 -3.25125 0
-371.522 -3.25483 0
-369.905 -3.24863 0
-368.288 -3.25008 0
-366.674 -3.25458 0
-365.06 -3.24987 0
-363.446 -3.24732 0
-361.827 -3.24608 0
-360.218 -3.24654 0
-358.601 -3.24663 0
-356.984 -3.24245 0
-355.369 -3.24707 0
-353.754 -3.24611 0
-352.139 -3.24866 0
-350.525 -3.24281 0
-348.908 -3.23809 0
-347.291 -3.23481 0
-345.671 -3.23425 0
-344.06 -3.23369 0
-342.447 -3.23587 0
-340.83 -3.23928 0
-339.215 -3.2388 0
-337.596 -3.24016 0
-335.979 -3.23444 0
-334.368 -3.23383 0
-332.752 -3.23214 0
-331.131 -3.23131 0
-329.515 -3.23508 0
-327.9 -3.23195 0
-326.282 -3.22959 0
-324.667 -3.22772 0
-323.05 -3.22696 0
-321.435 -3.22538 0
-319.817 -3.22735 0
-318.202 -3.22522 0
-316.584 -3.22413 0
-314.971 -3.22207 0
-313.354 -3.22096 0
-311.739 -3.21894 0
-310.125 -3.21797 0
-308.508 -3.21527 0
-306.893 -3.2166 0
-305.274 -3.21046 0
-303.662 -3.20784 0
-302.049 -3.20673 0
-300.435 -3.21038 0
-298.817 -3.207 0
-297.199 -3.20433 0
-295.586 -3.20439 0
-293.969 -3.20741 0
-292.351 -3.20717 0
-290.738 -3.20634 0
-289.122 -3.20807 0
-287.504 -3.20266 0
-285.889 -3.20339 0
-284.272 -3.20121 0
-282.659 -3.20079 0
-281.042 -3.20069 0
-279.428 -3.198 0
-277.815 -3.1946 0
-276.197 -3.19976 0
-274.579 -3.19715 0
-272.966 -3.19367 0
-271.35 -3.19294 0
-269.735 -3.19364 0
-268.117 -3.19275 0
-266.505 -3.18831 0
-264.889 -3.1932 0
-263.273 -3.18877 0
-261.655 -3.19082 0
-260.038 -3.19209 0
-258.425 -3.18959 0
-256.809 -3.18592 0
-255.197 -3.18661 0
-253.577 -3.18367 0
-251.963 -3.18307 0
-250.347 -3.18323 0
-248.73 -3.18453 0
-247.112 -3.18482 0
-245.502 -3.18685 0
-243.883 -3.18397 0
-242.267 -3.1793 0
-240.652 -3.17856 0
-239.032 -3.1789 0
-237.42 -3.17894 0
-235.802 -3.18522 0
-234.186 -3.18417 0
-232.57 -3.18427 0
-230.954 -3.18527 0
-229.339 -3.1823 0
-227.726 -3.18854 0
-226.11 -3.18936 0
-224.488 -3.18954 0
-222.877 -3.19046 0
-221.26 -3.19011 0
-219.651 -3.18708 0
-218.035 -3.18038 0
-216.413 -3.18336 0
-214.798 -3.18729 0
-213.185 -3.18606 0
-211.566 -3.18851 0
-209.95 -3.18203 0
-208.336 -3.18563 0
-206.719 -3.1847 0
-205.103 -3.18422 0
-203.494 -3.18216 0
-201.879 -3.18128 0
-200.26 -3.1825 0
-198.646 -3.18532 0
-197.033 -3.18714 0
-195.417 -3.18821 0
-193.803 -3.18938 0
-192.19 -3.19224 0
-190.574 -3.19056 0
-188.957 -3.18913 0
-187.34 -3.18062 0
-185.722 -3.1843 0
-184.109 -3.18287 0
-182.493 -3.18864 0
-180.878 -3.19101 0
-179.258 -3.1905 0
-177.642 -3.18802 0
-176.028 -3.1938 0
-174.418 -3.1914 0
-172.803 -3.19656 0
-171.186 -3.19463 0
-169.57 -3.1953 0
-167.956 -3.19655 0
-166.337 -3.19551 0
-164.718 -3.19184 0
-163.106 -3.19552 0
-161.493 -3.19068 0
-159.876 -3.19103 0
-158.263 -3.19021 0
-156.647 -3.19178 0
-155.037 -3.19244 0
-153.423 -3.19469 0
-151.802 -3.19708 0
-150.19 -3.19311 0
-148.574 -3.19073 0
-146.957 -3.18895 0
-145.343 -3.19119 0
-143.725 -3.18913 0
-142.112 -3.18963 0
-140.499 -3.1935 0
-138.882 -3.19041 0
-137.266 -3.18767 0
-135.649 -3.19333 0
-134.038 -3.19218 0
-132.422 -3.19507 0
-130.806 -3.19385 0
-129.195 -3.19551 0
-127.579 -3.19507 0
-125.962 -3.19349 0
-124.347 -3.19682 0
-122.733 -3.19715 0
-121.116 -3.19856 0
-119.503 -3.19598 0
-117.885 -3.19579 0
-116.269 -3.19883 0
-114.657 -3.19754 0
-113.044 -3.19906 0
-111.426 -3.19563 0
-109.809 -3.19426 0
-108.195 -3.19657 0
-106.584 -3.19857 0
-104.969 -3.19396 0
-103.35 -3.19295 0
-101.735 -3.19444 0
-100.121 -3.19561 0
-98.5066 -3.19227 0
-96.8895 -3.19678 0
-95.2759 -3.19663 0
-93.6617 -3.19559 0
-92.0477 -3.19832 0
-90.4321 -3.19986 0
-88.8179 -3.19893 0
-87.2014 -3.19567 0
-85.5861 -3.19972 0
-83.9707 -3.19935 0
-82.3562 -3.19546 0
-80.7416 -3.19866 0
-79.1283 -3.19505 0
-77.5111 -3.19688 0
-75.8979 -3.19539 0
-74.2816 -3.19658 0
-72.6647 -3.19986 0
-71.0497 -3.19994 0
-69.4346 -3.19809 0
-67.8225 -3.19854 0
-66.207 -3.19533 0
-64.593 -3.19779 0
-62.9771 -3.19952 0
-61.3611 -3.19776 0
-59.7461 -3.19779 0
-58.1331 -3.19965 0
-56.5193 -3.20056 0
-54.9043 -3.2001 0
-53.2879 -3.19602 0
-51.6728 -3.19854 0
-50.0612 -3.19759 0
-48.4441 -3.19777 0
-46.8294 -3.198 0
-45.2132 -3.19511 0
-43.599 -3.19619 0
-41.9812 -3.1977 0
-40.3683 -3.19863 0
-38.7539 -3.19649 0
-37.1416 -3.20069 0
-35.5253 -3.19498 0
-33.912 -3.19367 0
-32.2941 -3.19291 0
-30.6826 -3.19595 0
-29.0685 -3.19658 0
-27.4526 -3.19653 0
-25.8365 -3.19406 0
-24.2243 -3.1937 0
-22.6081 -3.19585 0
-20.9929 -3.19449 0
-19.377 -3.19189 0
-17.7612 -3.19236 0
-16.1481 -3.19138 0
-14.5308 -3.19234 0
-12.9167 -3.19071 0
-11.3041 -3.19755 0
-9.68538 -3.19387 0
-8.07486 -3.19279 0
-6.45904 -3.19366 0
-4.84691 -3.19828 0
-3.23135 -3.19663 0
-1.61549 -3.19883 0
0 -3.19863 0
-1090.94 102.449 0
-1090.84 92.1436 0
-1090.9 82.2085 0
-1090.92 72.5092 0
-1090.87 63.0781 0
-1090.73 53.9578 0
-1090.51 45.2204 0
-1090.21 36.9342 0
-1089.85 29.1547 0
-1089.42 21.9146 0
-1088.94 15.2349 0
-1088.41 9.13064 0
-1087.85 3.59269 0
-1087.34 -1.46933 0
-1086.89 -6.13499 0
-1086.5 -10.4395 0
-1086.07 -14.4154 0
-1085.6 -18.0378 0
-1085.08 -21.2841 0
-1084.54 -24.1397 0
-1083.98 -26.6053 0
-1083.4 -28.6879 0
-1082.81 -30.4076 0
-1082.2 -31.778 0
-1081.59 -32.8281 0
-1080.95 -33.5848 0
-1080.29 -34.0778 0
-1079.61 -34.3264 0
-1078.9 -34.359 0
-1078.15 -34.1957 0
-1077.37 -33.8599 0
-1076.54 -33.3671 0
-1075.68 -32.7343 0
-1074.78 -31.9776 0
-1073.83 -31.1128 0
-1072.85 -30.1531 0
-1071.83 -29.1105 0
-1070.76 -27.9969 0
-1069.66 -26.8223 0
-1068.52 -25.5982 0
-1067.35 -24.3364 0
-1066.13 -23.043 0
-1064.88 -21.7258 0
-1063.6 -20.3907 0
-1062.29 -19.047 0
-1060.94 -17.7005 0
-1059.57 -16.3585 0
-1058.16 -15.0249 0
-1056.73 -13.7019 0
-1055.27 -12.3973 0
-1053.79 -11.1157 0
-1052.28 -9.85932 0
-1050.75 -8.6314 0
-1049.2 -7.43525 0
-1047.63 -6.2708 0
-1046.04 -5.14409 0
-1044.44 -4.05193 0
-1042.82 -2.99982 0
-1041.18 -1.98682 0
-1039.53 -1.01978 0
-1037.87 -0.0952162 0
-1036.19 0.786553 0
-1034.5 1.62557 0
-1032.8 2.41749 0
-1031.1 3.16418 0
-1029.38 3.86677 0
-1027.66 4.52514 0
-1025.93 5.13766 0
-1024.19 5.70503 0
-1022.45 6.22858 0
-1020.7 6.70808 0
-1018.95 7.14299 0
-1017.2 7.53691 0
-1015.44 7.8884 0
-1013.69 8.19842 0
-1011.93 8.46892 0
-1010.17 8.69885 0
-1008.41 8.89161 0
-1006.65 9.04707 0
-1004.89 9.16511 0
-1003.13 9.24877 0
-1001.38 9.29986 0
-999.625 9.31855 0
-997.873 9.3055 0
-996.124 9.26226 0
-994.379 9.19053 0
-992.638 9.09243 0
-990.898 8.96721 0
-989.163 8.81728 0
-987.432 8.64421 0
-985.705 8.44966 0
-983.983 8.23444 0
-982.264 8.00013 0
-980.551 7.74845 0
-978.842 7.48185 0
-977.138 7.19632 0
-975.44 6.89988 0
-973.746 6.59084 0
-972.056 6.26902 0
-970.373 5.93684 0
-968.693 5.59755 0
-967.021 5.25061 0
-965.352 4.89729 0
-963.688 4.53954 0
-962.029 4.17854 0