<?xml version="1.0"?>
<VTKFile type="StructuredGrid"  version="0.1" byte_order="LittleEndian" compressor="vtkZLibDataCompressor">
  <StructuredGrid WholeExtent="0 700 0 30 0 0">
    <Piece Extent="0 700 0 30 0 0">
      <PointData Vectors="Velocity">
        <DataArray type="Float32" Name="Velocity" NumberOfComponents="3" format="ascii">
-1088 177.543 0
-1088.25 164.139 0
-1088.54 150.866 0
-1088.87 137.804 0
-1089.21 124.974 0
-1089.59 112.429 0
-1090.04 100.247 0
-1090.52 88.5017 0
-1091.04 77.2174 0
-1091.59 66.4344 0
-1092.15 56.1796 0
-1092.69 46.463 0
-1093.22 37.2935 0
-1093.74 28.6804 0
-1094.23 20.6875 0
-1094.6 13.28 0
-1094.86 6.36723 0
-1095.03 -0.215562 0
-1095.27 -6.45344 0
-1095.53 -12.3073 0
-1095.79 -17.7488 0
-1096.01 -22.779 0
-1096.23 -27.4262 0
-1096.41 -31.679 0
-1096.57 -35.555 0
-1096.72 -39.0456 0
-1096.84 -42.176 0
-1096.93 -44.9548 0
-1096.97 -47.3922 0
-1096.97 -49.5164 0
-1096.93 -51.3307 0
-1096.84 -52.8601 0
-1096.7 -54.1078 0
-1096.5 -55.1077 0
-1096.24 -55.8635 0
-1095.93 -56.3995 0
-1095.56 -56.7152 0
-1095.14 -56.8289 0
-1094.66 -56.7639 0
-1094.12 -56.5175 0
-1093.52 -56.1093 0
-1092.86 -55.5549 0
-1092.15 -54.8615 0
-1091.39 -54.04 0
-1090.57 -53.0994 0
-1089.7 -52.0523 0
-1088.78 -50.9073 0
-1087.81 -49.6713 0
-1086.79 -48.3519 0
-1085.72 -46.9591 0
-1084.61 -45.5066 0
-1083.45 -43.9888 0
-1082.25 -42.4342 0
-1081.01 -40.833 0
-1079.73 -39.1888 0
-1078.4 -37.5092 0
-1077.04 -35.8166 0
-1075.64 -34.0986 0
-1074.2 -32.3707 0
-1072.74 -30.6253 0
-1071.24 -28.8842 0
-1069.71 -27.1353 0
-1068.15 -25.3951 0
-1066.57 -23.6628 0
-1064.96 -21.9317 0
-1063.32 -20.2195 0
-1061.66 -18.5259 0
-1059.97 -16.848 0
-1058.26 -15.1979 0
-1056.54 -13.5673 0
-1054.79 -11.9701 0
-1053.03 -10.4006 0
-1051.25 -8.86511 0
-1049.45 -7.35686 0
-1047.64 -5.88628 0
-1045.81 -4.44944 0
-1043.97 -3.05217 0
-1042.12 -1.69491 0
-1040.25 -0.379803 0
-1038.38 0.899432 0
-1036.5 2.13466 0
-1034.6 3.32876 0
-1032.7 4.47308 0
-1030.79 5.57966 0
-1028.88 6.64121 0
-1026.96 7.65789 0
-1025.03 8.62504 0
-1023.11 9.55242 0
-1021.18 10.4333 0
-1019.24 11.2684 0
-1017.3 12.0568 0
-1015.36 12.8044 0
-1013.42 13.5033 0
-1011.48 14.161 0
-1009.53 14.7713 0
-1007.6 15.3393 0
-1005.65 15.8657 0
-1003.71 16.3462 0
-1001.78 16.7837 0
-999.841 17.1807 0
-997.907 17.5371 0
-995.974 17.8514 0
-994.044 18.1274 0
-992.116 18.3643 0
-990.197 18.5598 0
-988.279 18.717 0
-986.365 18.8391 0
-984.457 18.9267 0
-982.555 18.9767 0
-980.657 18.9945 0
-978.762 18.9738 0
-976.88 18.9225 0
-975.001 18.8406 0
-973.125 18.7282 0
-971.258 18.5855 0
-969.395 18.418 0
-967.539 18.222 0
-965.691 18.0007 0
-963.849 17.7534 0
-962.016 17.4807 0
-960.185 17.1861 0
-958.363 16.8679 0
-956.548 16.5276 0
-954.741 16.1701 0
-952.943 15.7869 0
-951.15 15.3926 0
-949.365 14.9811 0
-947.583 14.552 0
-945.812 14.1105 0
-944.045 13.6504 0
-942.289 13.1811 0
-940.539 12.7006 0
-938.795 12.2068 0
-937.057 11.705 0
-935.33 11.1953 0
-933.605 10.6774 0
-931.886 10.1515 0
-930.176 9.62352 0
-928.471 9.08799 0
-926.772 8.55165 0
-925.079 8.00861 0
-923.392 7.46461 0
-921.71 6.91818 0
-920.035 6.37065 0
-918.367 5.82657 0
-916.701 5.28189 0
-915.045 4.7411 0
-913.388 4.19838 0
-911.739 3.66227 0
-910.092 3.12896 0
-908.451 2.59962 0
-906.814 2.07192 0
-905.181 1.55196 0
-903.553 1.04247 0
-901.929 0.535408 0
-900.308 0.0386466 0
-898.692 -0.4528 0
-897.078 -0.934564 0
-895.467 -1.40921 0
-893.858 -1.87614 0
-892.254 -2.33077 0
-890.653 -2.77499 0
-889.055 -3.20968 0
-887.455 -3.63264 0
-885.858 -4.04842 0
-884.267 -4.44942 0
-882.677 -4.83809 0
-881.09 -5.2197 0
-879.503 -5.58493 0
-877.917 -5.94078 0
-876.331 -6.28614 0
-874.747 -6.61775 0
-873.167 -6.93802 0
-871.583 -7.24495 0
-870.002 -7.54125 0
-868.423 -7.82315 0
-866.841 -8.09432 0
-865.261 -8.35016 0
-863.683 -8.59457 0
-862.103 -8.82705 0
-860.526 -9.04315 0
-858.947 -9.25135 0
-857.367 -9.44453 0
-855.786 -9.62656 0
-854.205 -9.79632 0
-852.626 -9.9552 0
-851.044 -10.1002 0
-849.462 -10.234 0
-847.879 -10.3569 0
-846.296 -10.4666 0
-844.711 -10.5667 0
-843.125 -10.6567 0
-841.541 -10.7311 0
-839.951 -10.7962 0
-838.36 -10.8526 0
-836.768 -10.8993 0
-835.175 -10.9323 0
-833.583 -10.9604 0
-831.989 -10.9742 0
-830.397 -10.9832 0
-828.798 -10.9785 0
-827.197 -10.9685 0
-825.596 -10.9509 0
-823.995 -10.9226 0
-822.391 -10.8879 0
-820.785 -10.8451 0
-819.18 -10.7901 0
-817.571 -10.7345 0
-815.961 -10.6687 0
-814.349 -10.5956 0
-812.734 -10.5139 0
-811.118 -10.4283 0
-809.502 -10.3392 0
-807.883 -10.2445 0
-806.261 -10.142 0
-804.641 -10.038 0
-803.017 -9.92354 0
-801.39 -9.80617 0
-799.762 -9.68525 0
-798.131 -9.55974 0
-796.499 -9.43488 0
-794.868 -9.30366 0
-793.235 -9.16624 0
-791.597 -9.02819 0
-789.955 -8.8897 0
-788.314 -8.74671 0
-786.675 -8.60032 0
-785.03 -8.45045 0
-783.386 -8.30454 0
-781.74 -8.15453 0
-780.093 -7.99911 0
-778.443 -7.84936 0
-776.794 -7.69372 0
-775.143 -7.53844 0
-773.488 -7.38105 0
-771.835 -7.22744 0
-770.179 -7.07433 0
-768.522 -6.91926 0
-766.862 -6.7627 0
-765.203 -6.60903 0
-763.54 -6.45439 0
-761.879 -6.30187 0
-760.216 -6.15219 0
-758.55 -6.00087 0
-756.885 -5.85225 0
-755.217 -5.70483 0
-753.55 -5.56255 0
-751.882 -5.41943 0
-750.211 -5.27562 0
-748.538 -5.13583 0
-746.865 -4.99633 0
-745.195 -4.86174 0
-743.522 -4.7281 0
-741.848 -4.60009 0
-740.174 -4.47101 0
-738.498 -4.34459 0
-736.823 -4.22382 0
-735.145 -4.10536 0
-733.468 -3.98724 0
-731.79 -3.87729 0
-730.115 -3.76513 0
-728.44 -3.65918 0
-726.759 -3.55568 0
-725.08 -3.45392 0
-723.401 -3.35604 0
-721.72 -3.26382 0
-720.039 -3.1727 0
-718.359 -3.08813 0
-716.677 -2.99969 0
-714.998 -2.9166 0
-713.316 -2.84039 0
-711.637 -2.76984 0
-709.956 -2.70109 0
-708.275 -2.63118 0
-706.593 -2.57207 0
-704.908 -2.51185 0
-703.229 -2.45675 0
-701.547 -2.40344 0
-699.867 -2.35423 0
-698.189 -2.30931 0
-696.507 -2.26469 0
-694.825 -2.22377 0
-693.145 -2.18586 0
-691.464 -2.15896 0
-689.782 -2.13039 0
-688.104 -2.10547 0
-686.426 -2.08344 0
-684.746 -2.0611 0
-683.066 -2.0506 0
-681.387 -2.03409 0
-679.707 -2.02294 0
-678.028 -2.01758 0
-676.351 -2.01126 0
-674.674 -2.01132 0
-672.998 -2.01634 0
-671.32 -2.01706 0
-669.643 -2.02914 0
-667.968 -2.03696 0
-666.294 -2.04638 0
-664.616 -2.06266 0
-662.941 -2.08312 0
-661.266 -2.10033 0
-659.591 -2.12376 0
-657.918 -2.14776 0
-656.245 -2.17509 0
-654.572 -2.20357 0
-652.898 -2.2365 0
-651.226 -2.27217 0
-649.558 -2.30973 0
-647.89 -2.34348 0
-646.22 -2.37876 0
-644.549 -2.41823 0
-642.877 -2.45978 0
-641.21 -2.50453 0
-639.542 -2.55097 0
-637.877 -2.59567 0
-636.205 -2.64097 0
-634.54 -2.68904 0
-632.876 -2.74001 0
-631.208 -2.79044 0
-629.539 -2.84463 0
-627.877 -2.89618 0
-626.21 -2.95493 0
-624.547 -3.01001 0
-622.88 -3.06511 0
-621.218 -3.1196 0
-619.561 -3.17672 0
-617.901 -3.23431 0
-616.236 -3.2917 0
-614.571 -3.34854 0
-612.91 -3.40304 0
-611.249 -3.46088 0
-609.588 -3.52005 0
-607.93 -3.58171 0
-606.266 -3.63928 0
-604.61 -3.70302 0
-602.955 -3.76358 0
-601.296 -3.82951 0
-599.638 -3.88303 0
-597.978 -3.94091 0
-596.322 -4.0019 0
-594.666 -4.05995 0
-593.008 -4.11811 0
-591.353 -4.17424 0
-589.698 -4.23445 0
-588.041 -4.28933 0
-586.386 -4.34691 0
-584.728 -4.40399 0
-583.076 -4.4642 0
-581.424 -4.51376 0
-579.767 -4.56506 0
-578.112 -4.62221 0
-576.458 -4.67641 0
-574.808 -4.72452 0
-573.152 -4.77952 0
-571.496 -4.82823 0
-569.845 -4.87237 0
-568.191 -4.92358 0
-566.536 -4.97017 0
-564.885 -5.02296 0
-563.237 -5.06523 0
-561.582 -5.10933 0
-559.931 -5.15913 0
-558.284 -5.20325 0
-556.634 -5.24097 0
-554.983 -5.28287 0
-553.334 -5.32715 0
-551.679 -5.36163 0
-550.029 -5.40423 0
-548.375 -5.43801 0
-546.72 -5.47814 0
-545.07 -5.51144 0
-543.42 -5.54566 0
-541.767 -5.58358 0
-540.114 -5.61071 0
-538.469 -5.64102 0
-536.818 -5.66937 0
-535.161 -5.70047 0
-533.516 -5.72954 0
-531.865 -5.75633 0
-530.214 -5.78043 0
-528.563 -5.8042 0
-526.919 -5.82354 0
-525.269 -5.84755 0
-523.618 -5.86883 0
-521.965 -5.88793 0
-520.315 -5.91121 0
-518.666 -5.925 0
-517.017 -5.93556 0
-515.363 -5.95151 0
-513.708 -5.96359 0
-512.053 -5.97302 0
-510.407 -5.98561 0
-508.756 -5.99821 0
-507.104 -6.0058 0
-505.451 -6.01482 0
-503.799 -6.02364 0
-502.147 -6.03405 0
-500.496 -6.04033 0
-498.845 -6.05006 0
-497.193 -6.04906 0
-495.545 -6.05143 0
-493.889 -6.05379 0
-492.237 -6.05703 0
-490.585 -6.05815 0
-488.934 -6.0571 0
-487.285 -6.05846 0
-485.633 -6.05686 0
-483.976 -6.05577 0
-482.322 -6.05799 0
-480.667 -6.05483 0
-479.016 -6.05001 0
-477.365 -6.04319 0
-475.711 -6.03779 0
-474.057 -6.03232 0
-472.402 -6.02269 0
-470.751 -6.01842 0
-469.098 -6.01491 0
-467.442 -6.00316 0
-465.79 -5.99364 0
-464.134 -5.98682 0
-462.482 -5.97742 0
-460.826 -5.95965 0
-459.168 -5.95472 0
-457.517 -5.93872 0
-455.856 -5.92806 0
-454.203 -5.91993 0
-452.551 -5.90735 0
-450.89 -5.8905 0
-449.236 -5.8817 0
-447.58 -5.85853 0
-445.925 -5.84589 0
-444.274 -5.83657 0
-442.619 -5.82025 0
-440.959 -5.79998 0
-439.301 -5.78814 0
-437.643 -5.77489 0
-435.986 -5.75789 0
-434.329 -5.74114 0
-432.672 -5.72131 0
-431.012 -5.70917 0
-429.357 -5.68694 0
-427.703 -5.67704 0
-426.049 -5.65808 0
-424.386 -5.6477 0
-422.729 -5.62765 0
-421.071 -5.60998 0
-419.419 -5.59225 0
-417.762 -5.57936 0
-416.104 -5.56157 0
-414.446 -5.5464 0
-412.786 -5.53276 0
-411.127 -5.51315 0
-409.466 -5.49651 0
-407.805 -5.47819 0
-406.15 -5.45937 0
-404.489 -5.44518 0
-402.828 -5.43339 0
-401.172 -5.41593 0
-399.516 -5.402 0
-397.858 -5.38257 0
-396.194 -5.3662 0
-394.536 -5.35482 0
-392.875 -5.3367 0
-391.218 -5.32488 0
-389.553 -5.30844 0
-387.897 -5.29229 0
-386.236 -5.27644 0
-384.581 -5.26367 0
-382.923 -5.25278 0
-381.259 -5.24569 0
-379.607 -5.23181 0
-377.95 -5.20675 0
-376.289 -5.19979 0
-374.628 -5.18802 0
-372.97 -5.17772 0
-371.309 -5.16619 0
-369.651 -5.15788 0
-367.989 -5.1423 0
-366.333 -5.13056 0
-364.67 -5.11307 0
-363.012 -5.10783 0
-361.351 -5.10255 0
-359.691 -5.09774 0
-358.03 -5.08746 0
-356.373 -5.0721 0
-354.713 -5.06038 0
-353.052 -5.05657 0
-351.391 -5.04613 0
-349.73 -5.0383 0
-348.07 -5.02895 0
-346.416 -5.02445 0
-344.755 -5.00999 0
-343.102 -5.00768 0
-341.443 -5.00255 0
-339.783 -4.99012 0
-338.121 -4.99395 0
-336.461 -4.97974 0
-334.797 -4.97512 0
-333.137 -4.97153 0
-331.473 -4.9662 0
-329.819 -4.96796 0
-328.154 -4.96457 0
-326.497 -4.9565 0
-324.84 -4.9469 0
-323.176 -4.94563 0
-321.517 -4.94218 0
-319.856 -4.93555 0
-318.199 -4.9354 0
-316.538 -4.92602 0
-314.882 -4.9312 0
-313.223 -4.92677 0
-311.566 -4.92517 0
-309.907 -4.91809 0
-308.249 -4.92097 0
-306.592 -4.92131 0
-304.932 -4.92117 0
-303.275 -4.91418 0
-301.615 -4.92049 0
-299.957 -4.92167 0
-298.299 -4.9148 0
-296.641 -4.92285 0
-294.986 -4.92317 0
-293.323 -4.92354 0
-291.662 -4.91818 0
-290.008 -4.91972 0
-288.346 -4.92563 0
-286.689 -4.92824 0
-285.03 -4.92259 0
-283.366 -4.92594 0
-281.709 -4.93101 0
-280.05 -4.93665 0
-278.394 -4.93293 0
-276.737 -4.93596 0
-275.076 -4.93809 0
-273.417 -4.93848 0
-271.76 -4.94007 0
-270.105 -4.94715 0
-268.447 -4.94837 0
-266.796 -4.9537 0
-265.133 -4.95572 0
-263.474 -4.95384 0
-261.811 -4.95565 0
-260.15 -4.95577 0
-258.494 -4.95574 0
-256.839 -4.95772 0
-255.182 -4.95954 0
-253.521 -4.96183 0
-251.864 -4.96243 0
-250.202 -4.96473 0
-248.545 -4.96524 0
-246.887 -4.97132 0
-245.234 -4.98137 0
-243.576 -4.98692 0
-241.917 -4.98565 0
-240.256 -4.98956 0
-238.598 -4.99685 0
-236.943 -4.99603 0
-235.291 -4.99875 0
-233.628 -5.00344 0
-231.971 -5.00838 0
-230.31 -5.00738 0
-228.652 -5.01204 0
-227.001 -5.02708 0
-225.348 -5.02544 0
-223.679 -5.03367 0
-222.023 -5.03445 0
-220.372 -5.04046 0
-218.711 -5.03591 0
-217.056 -5.04199 0
-215.399 -5.04762 0
-213.741 -5.05049 0
-212.08 -5.04936 0
-210.419 -5.05916 0
-208.766 -5.06633 0
-207.111 -5.06136 0
-205.454 -5.0618 0
-203.796 -5.06417 0
-202.132 -5.06721 0
-200.477 -5.06844 0
-198.827 -5.06811 0
-197.168 -5.06715 0
-195.506 -5.07386 0
-193.846 -5.08268 0
-192.192 -5.08107 0
-190.542 -5.08019 0
-188.893 -5.0857 0
-187.232 -5.09288 0
-185.573 -5.08118 0
-183.918 -5.0806 0
-182.253 -5.09126 0
-180.599 -5.08881 0
-178.942 -5.09261 0
-177.285 -5.09026 0
-175.624 -5.08999 0
-173.967 -5.09287 0
-172.318 -5.09731 0
-170.663 -5.09749 0
-169.006 -5.09271 0
-167.346 -5.09334 0
-165.691 -5.09694 0
-164.026 -5.09984 0
-162.371 -5.10567 0
-160.721 -5.09927 0
-159.066 -5.09686 0
-157.402 -5.10024 0
-155.744 -5.1026 0
-154.086 -5.10776 0
-152.432 -5.1073 0
-150.772 -5.10455 0
-149.121 -5.10303 0
-147.462 -5.10456 0
-145.806 -5.10503 0
-144.152 -5.10552 0
-142.495 -5.10752 0
-140.831 -5.10918 0
-139.173 -5.10532 0
-137.519 -5.0965 0
-135.861 -5.1032 0
-134.205 -5.10149 0
-132.552 -5.09576 0
-130.891 -5.09676 0
-129.236 -5.10238 0
-127.584 -5.09831 0
-125.929 -5.09425 0
-124.271 -5.09079 0
-122.61 -5.09707 0
-120.953 -5.09133 0
-119.302 -5.0934 0
-117.642 -5.0923 0
-115.978 -5.09187 0
-114.326 -5.09719 0
-112.673 -5.08949 0
-111.011 -5.09703 0
-109.36 -5.0847 0
-107.703 -5.08603 0
-106.04 -5.08259 0
-104.385 -5.0794 0
-102.728 -5.07537 0
-101.073 -5.07578 0
-99.4177 -5.07071 0
-97.7578 -5.07143 0
-96.1059 -5.06646 0
-94.4456 -5.06683 0
-92.7966 -5.07338 0
-91.1386 -5.06322 0
-89.48 -5.06665 0
-87.827 -5.06353 0
-86.1732 -5.05911 0
-84.5071 -5.05829 0
-82.8495 -5.0588 0
-81.1898 -5.05635 0
-79.5341 -5.05716 0
-77.8799 -5.04975 0
-76.2177 -5.05128 0
-74.5615 -5.05058 0
-72.9126 -5.04172 0
-71.2537 -5.04186 0
-69.5919 -5.04485 0
-67.9336 -5.04084 0
-66.2788 -5.03014 0
-64.6263 -5.04108 0
-62.9659 -5.03723 0
-61.3114 -5.03517 0
-59.6542 -5.02206 0
-57.9947 -5.02056 0
-56.3386 -5.01887 0
-54.679 -5.01711 0
-53.0227 -5.01502 0
-51.3664 -5.00861 0
-49.7127 -5.00793 0
-48.0563 -5.00697 0
-46.3974 -5.00982 0
-44.7398 -5.00487 0
-43.0857 -5.0207 0
-41.4342 -5.0145 0
-39.7761 -5.00433 0
-38.123 -5.00373 0
-36.4552 -5.00658 0
-34.8002 -5.00604 0
-33.1424 -5.00279 0
-31.4865 -5.00918 0
-29.8288 -4.99962 0
-28.1716 -5.00298 0
-26.5137 -4.99792 0
-24.8541 -4.98681 0
-23.1973 -4.9866 0
-21.5353 -4.99974 0
-19.8916 -4.99281 0
-18.2338 -4.99254 0
-16.5792 -4.99525 0
-14.9099 -4.99513 0
-13.2589 -4.99249 0
-11.6004 -4.9883 0
-9.94513 -4.99599 0
-8.28928 -4.98974 0
-6.62775 -4.99213 0
-4.97392 -4.99549 0
-3.31517 -4.99015 0
-1.6558 -4.98877 0
0 -4.99887 0
-1101.39 177.811 0
-1101.54 164.374 0
-1101.68 151.078 0
-1101.79 137.998 0
-1101.9 125.155 0
-1101.99 112.581 0
-1102.04 100.36 0
-1102.07 88.5712 0
-1102.11 77.2537 0
-1102.13 66.4466 0
-1102.14 56.1742 0
-1102.13 46.4513 0
-1102.08 37.2888 0
-1101.99 28.6933 0
-1101.85 20.7108 0
-1101.68 13.3386 0
-1101.59 6.429 0
-1101.51 -0.160556 0
-1101.39 -6.4014 0
-1101.23 -12.2525 0
-1101.06 -17.691 0
-1100.89 -22.7258 0
-1100.71 -27.3657 0
-1100.52 -31.6119 0
-1100.31 -35.4857 0
-1100.09 -38.9604 0
-1099.84 -42.0692 0
-1099.58 -44.8275 0
-1099.29 -47.2396 0
-1098.98 -49.3281 0
-1098.64 -51.1099 0
-1098.26 -52.597 0
-1097.85 -53.8036 0
-1097.4 -54.7576 0
-1096.91 -55.4661 0
-1096.37 -55.9545 0
-1095.8 -56.2246 0
-1095.18 -56.2879 0
-1094.52 -56.1671 0
-1093.8 -55.8772 0
-1093.05 -55.4186 0
-1092.25 -54.8118 0
-1091.41 -54.0714 0
-1090.52 -53.1969 0
-1089.59 -52.2089 0
-1088.62 -51.1141 0
-1087.6 -49.9242 0
-1086.54 -48.6408 0
-1085.45 -47.2784 0
-1084.31 -45.8454 0
-1083.14 -44.3496 0
-1081.93 -42.7929 0
-1080.68 -41.1953 0
-1079.4 -39.5553 0
-1078.07 -37.8718 0
-1076.73 -36.1598 0
-1075.34 -34.4302 0
-1073.93 -32.6799 0
-1072.48 -30.9192 0
-1071.01 -29.148 0
-1069.51 -27.3728 0
-1067.98 -25.5989 0
-1066.43 -23.8319 0
-1064.85 -22.069 0
-1063.25 -20.319 0
-1061.63 -18.5811 0
-1059.99 -16.8645 0
-1058.32 -15.1627 0
-1056.64 -13.4958 0
-1054.94 -11.8512 0
-1053.22 -10.2304 0
-1051.48 -8.6462 0
-1049.74 -7.09464 0
-1047.97 -5.56881 0
-1046.2 -4.08478 0
-1044.4 -2.63582 0
-1042.6 -1.2269 0
-1040.79 0.139173 0
-1038.97 1.46916 0
-1037.13 2.75432 0
-1035.29 3.99912 0
-1033.44 5.19891 0
-1031.59 6.35409 0
-1029.72 7.4645 0
-1027.85 8.53265 0
-1025.98 9.55293 0
-1024.1 10.5273 0
-1022.21 11.4558 0
-1020.33 12.3407 0
-1018.43 13.1775 0
-1016.54 13.9711 0
-1014.64 14.7185 0
-1012.75 15.4195 0
-1010.85 16.0761 0
-1008.95 16.6864 0
-1007.06 17.256 0
-1005.16 17.7794 0
-1003.26 18.2598 0
-1001.36 18.6952 0
-999.469 19.0909 0
-997.574 19.4458 0
-995.682 19.7566 0
-993.792 20.0312 0
-991.905 20.2633 0
-990.023 20.4558 0
-988.142 20.61 0
-986.265 20.7264 0
-984.391 20.8094 0
-982.524 20.8537 0
-980.661 20.8664 0
-978.801 20.8414 0
-976.947 20.7845 0
-975.096 20.6977 0
-973.254 20.5796 0
-971.414 20.4308 0
-969.579 20.2596 0
-967.749 20.0565 0
-965.926 19.8297 0
-964.109 19.5756 0
-962.298 19.2958 0
-960.492 18.9952 0
-958.693 18.6696 0
-956.896 18.3245 0
-955.112 17.9559 0
-953.329 17.5708 0
-951.552 17.1694 0
-949.781 16.7506 0
-948.017 16.3167 0
-946.26 15.8661 0
-944.509 15.4008 0
-942.763 14.9236 0
-941.024 14.4361 0
-939.29 13.9373 0
-937.563 13.4294 0
-935.84 12.9138 0
-934.123 12.3896 0
-932.412 11.8593 0
-930.707 11.3235 0
-929.006 10.7835 0
-927.31 10.2414 0
-925.62 9.69332 0
-923.935 9.14387 0
-922.255 8.59137 0
-920.579 8.03917 0
-918.908 7.49013 0
-917.241 6.93962 0
-915.58 6.39285 0
-913.924 5.84969 0
-912.27 5.30703 0
-910.622 4.76977 0
-908.975 4.23641 0
-907.332 3.70551 0
-905.694 3.18366 0
-904.059 2.66735 0
-902.428 2.15762 0
-900.801 1.65579 0
-899.175 1.16291 0
-897.553 0.677481 0
-895.933 0.200601 0
-894.315 -0.268547 0
-892.701 -0.72618 0
-891.091 -1.1737 0
-889.48 -1.60974 0
-887.873 -2.03581 0
-886.265 -2.45312 0
-884.662 -2.85733 0
-883.061 -3.2482 0
-881.461 -3.6292 0
-879.862 -3.99817 0
-878.264 -4.35641 0
-876.668 -4.70211 0
-875.072 -5.03362 0
-873.476 -5.35353 0
-871.882 -5.66301 0
-870.29 -5.95915 0
-868.697 -6.24063 0
-867.103 -6.51241 0
-865.51 -6.76897 0
-863.919 -7.01324 0
-862.328 -7.2456 0
-860.735 -7.4648 0
-859.143 -7.67086 0
-857.552 -7.86423 0
-855.961 -8.04421 0
-854.37 -8.21558 0
-852.776 -8.37175 0
-851.184 -8.51729 0
-849.589 -8.65196 0
-847.996 -8.7732 0
-846.4 -8.88171 0
-844.807 -8.98176 0
-843.209 -9.06819 0
-841.611 -9.14498 0
-840.012 -9.20792 0
-838.411 -9.26278 0
-836.809 -9.30613 0
-835.207 -9.34112 0
-833.605 -9.36739 0
-832.001 -9.38174 0
-830.398 -9.3883 0
-828.793 -9.38154 0
-827.181 -9.36797 0
-825.573 -9.35013 0
-823.963 -9.32146 0
-822.352 -9.28352 0
-820.739 -9.23916 0
-819.125 -9.18664 0
-817.51 -9.12632 0
-815.891 -9.05862 0
-814.273 -8.98609 0
-812.652 -8.9038 0
-811.032 -8.81618 0
-809.409 -8.72503 0
-807.783 -8.6263 0
-806.158 -8.5234 0
-804.531 -8.41551 0
-802.902 -8.30067 0
-801.271 -8.18094 0
-799.638 -8.05951 0
-798.007 -7.93442 0
-796.371 -7.80753 0
-794.735 -7.67332 0
-793.095 -7.53515 0
-791.457 -7.39527 0
-789.815 -7.25325 0
-788.172 -7.10985 0
-786.528 -6.96141 0
-784.883 -6.81226 0
-783.237 -6.66234 0
-781.59 -6.51023 0
-779.94 -6.35699 0
-778.291 -6.20404 0
-776.639 -6.04784 0
-774.984 -5.89022 0
-773.332 -5.73266 0
-771.679 -5.57826 0
-770.024 -5.42063 0
-768.367 -5.26622 0
-766.707 -5.10942 0
-765.049 -4.95242 0
-763.388 -4.79946 0
-761.726 -4.64376 0
-760.064 -4.4936 0
-758.399 -4.34147 0
-756.736 -4.19088 0
-755.071 -4.04415 0
-753.405 -3.89892 0
-751.736 -3.75495 0
-750.07 -3.6119 0
-748.401 -3.47082 0
-746.732 -3.33089 0
-745.063 -3.19512 0
-743.392 -3.06296 0
-741.722 -2.93131 0
-740.05 -2.80388 0
-738.375 -2.67601 0
-736.699 -2.55206 0
-735.027 -2.43543 0
-733.355 -2.317 0
-731.681 -2.20468 0
-730.007 -2.09565 0
-728.333 -1.98591 0
-726.656 -1.88328 0
-724.98 -1.78236 0
-723.305 -1.68509 0
-721.628 -1.59089 0
-719.952 -1.49694 0
-718.273 -1.40993 0
-716.595 -1.32619 0
-714.919 -1.24459 0
-713.244 -1.16526 0
-711.567 -1.09425 0
-709.886 -1.02629 0
-708.208 -0.958836 0
-706.532 -0.895049 0
-704.855 -0.838313 0
-703.175 -0.781978 0
-701.498 -0.729454 0
-699.822 -0.679763 0
-698.143 -0.634971 0
-696.466 -0.589541 0
-694.787 -0.549837 0
-693.112 -0.513565 0
-691.436 -0.482367 0
-689.757 -0.456042 0
-688.08 -0.433752 0
-686.403 -0.410001 0
-684.729 -0.390436 0
-683.052 -0.372504 0
-681.375 -0.360968 0
-679.698 -0.351807 0
-678.022 -0.346281 0
-676.348 -0.340611 0
-674.672 -0.339151 0
-672.999 -0.34271 0
-671.325 -0.348291 0
-669.652 -0.356214 0
-667.978 -0.367006 0
-666.307 -0.379005 0
-664.635 -0.393808 0
-662.96 -0.41099 0
-661.286 -0.432519 0
-659.614 -0.457413 0
-657.944 -0.480614 0
-656.273 -0.508038 0
-654.605 -0.537183 0
-652.935 -0.571058 0
-651.265 -0.604307 0
-649.596 -0.644899 0
-647.926 -0.6796 0
-646.258 -0.714854 0
-644.587 -0.755425 0
-642.919 -0.795957 0
-641.254 -0.839692 0
-639.587 -0.888884 0
-637.918 -0.933868 0
-636.254 -0.979988 0
-634.592 -1.03336 0
-632.927 -1.07857 0
-631.263 -1.1297 0
-629.596 -1.18371 0
-627.931 -1.23788 0
-626.267 -1.29206 0
-624.603 -1.34711 0
-622.938 -1.40555 0
-621.278 -1.45917 0
-619.616 -1.51693 0
-617.951 -1.57636 0
-616.291 -1.63435 0
-614.627 -1.69204 0
-612.966 -1.74722 0
-611.307 -1.80457 0
-609.65 -1.86502 0
-607.991 -1.92898 0
-606.329 -1.98565 0
-604.671 -2.05117 0
-603.011 -2.11309 0
-601.353 -2.17308 0
-599.692 -2.22882 0
-598.035 -2.28814 0
-596.376 -2.34817 0
-594.721 -2.40513 0
-593.066 -2.46515 0
-591.408 -2.52362 0
-589.753 -2.58359 0
-588.099 -2.6398 0
-586.443 -2.69604 0
-584.789 -2.75547 0
-583.133 -2.81175 0
-581.479 -2.86622 0
-579.822 -2.91643 0
-578.168 -2.9731 0
-576.513 -3.02639 0
-574.857 -3.07901 0
-573.199 -3.13015 0
-571.546 -3.17891 0
-569.893 -3.22514 0
-568.242 -3.27637 0
-566.589 -3.32487 0
-564.936 -3.37436 0
-563.279 -3.42026 0
-561.627 -3.46251 0
-559.973 -3.51015 0
-558.324 -3.5544 0
-556.673 -3.59407 0
-555.025 -3.63756 0
-553.37 -3.67815 0
-551.716 -3.71671 0
-550.067 -3.75552 0
-548.412 -3.79079 0
-546.758 -3.83172 0
-545.104 -3.86504 0
-543.45 -3.89879 0
-541.799 -3.93433 0
-540.147 -3.96705 0
-538.494 -3.99809 0
-536.843 -4.02408 0
-535.194 -4.05683 0
-533.543 -4.08261 0
-531.889 -4.10885 0
-530.24 -4.13521 0
-528.59 -4.15733 0
-526.939 -4.18 0
-525.288 -4.19954 0
-523.636 -4.22544 0
-521.985 -4.24244 0
-520.333 -4.26005 0
-518.68 -4.27857 0
-517.029 -4.29035 0
-515.375 -4.30625 0
-513.721 -4.31295 0
-512.069 -4.32789 0
-510.418 -4.34063 0
-508.767 -4.35039 0
-507.111 -4.35712 0
-505.458 -4.36866 0
-503.807 -4.37566 0
-502.155 -4.38787 0
-500.504 -4.39357 0
-498.849 -4.39961 0
-497.199 -4.40345 0
-495.546 -4.40692 0
-493.895 -4.4059 0
-492.241 -4.40621 0
-490.586 -4.41026 0
-488.933 -4.41033 0
-487.28 -4.41103 0
-485.626 -4.40924 0
-483.974 -4.40906 0
-482.318 -4.40742 0
-480.665 -4.40651 0
-479.011 -4.40267 0
-477.358 -4.39639 0
-475.705 -4.38908 0
-474.049 -4.37894 0
-472.393 -4.37568 0
-470.741 -4.36865 0
-469.091 -4.36199 0
-467.435 -4.35326 0
-465.779 -4.34548 0
-464.126 -4.33677 0
-462.468 -4.32707 0
-460.813 -4.31266 0
-459.16 -4.29769 0
-457.505 -4.28843 0
-455.847 -4.27697 0
-454.188 -4.26979 0
-452.532 -4.25479 0
-450.882 -4.24355 0
-449.224 -4.2265 0
-447.568 -4.20952 0
-445.912 -4.19749 0
-444.257 -4.18696 0
-442.602 -4.1674 0
-440.948 -4.14663 0
-439.29 -4.13129 0
-437.633 -4.12059 0
-435.972 -4.10474 0
-434.316 -4.09142 0
-432.655 -4.07102 0
-430.999 -4.05583 0
-429.343 -4.03629 0
-427.689 -4.02545 0
-426.031 -4.00651 0
-424.371 -3.99203 0
-422.714 -3.97497 0
-421.058 -3.95816 0
-419.397 -3.94013 0
-417.74 -3.92472 0
-416.082 -3.90849 0
-414.43 -3.89377 0
-412.766 -3.87842 0
-411.11 -3.86192 0
-409.448 -3.84227 0
-407.787 -3.82622 0
-406.131 -3.80803 0
-404.472 -3.79219 0
-402.812 -3.77727 0
-401.154 -3.76463 0
-399.496 -3.74507 0
-397.84 -3.72695 0
-396.183 -3.71188 0
-394.519 -3.6964 0
-392.862 -3.68098 0
-391.199 -3.67061 0
-389.542 -3.65414 0
-387.878 -3.64118 0
-386.224 -3.62505 0
-384.568 -3.61122 0
-382.911 -3.59898 0
-381.254 -3.59023 0
-379.592 -3.57628 0
-377.933 -3.56038 0
-376.274 -3.54473 0
-374.614 -3.53176 0
-372.956 -3.52621 0
-371.296 -3.5113 0
-369.64 -3.50379 0
-367.98 -3.49137 0
-366.321 -3.47415 0
-364.664 -3.46439 0
-363.006 -3.45144 0
-361.346 -3.44664 0
-359.679 -3.43843 0
-358.021 -3.43113 0
-356.363 -3.42142 0
-354.702 -3.40767 0
-353.044 -3.39877 0
-351.383 -3.39009 0
-349.721 -3.38552 0
-348.064 -3.37097 0
-346.403 -3.37116 0
-344.744 -3.36229 0
-343.089 -3.35377 0
-341.43 -3.34908 0
-339.774 -3.34081 0
-338.113 -3.33278 0
-336.453 -3.32672 0
-334.794 -3.32113 0
-333.131 -3.31642 0
-331.474 -3.30909 0
-329.816 -3.30794 0
-328.152 -3.30603 0
-326.491 -3.29983 0
-324.832 -3.29542 0
-323.175 -3.29177 0
-321.515 -3.28347 0
-319.857 -3.28353 0
-318.195 -3.2783 0
-316.537 -3.27683 0
-314.877 -3.2751 0
-313.221 -3.27289 0
-311.56 -3.26817 0
-309.902 -3.26815 0
-308.244 -3.26928 0
-306.588 -3.26744 0
-304.93 -3.26614 0
-303.272 -3.26339 0
-301.616 -3.26523 0
-299.959 -3.26898 0
-298.298 -3.26466 0
-296.639 -3.26835 0
-294.981 -3.26979 0
-293.323 -3.26631 0
-291.663 -3.2691 0
-290.008 -3.26796 0
-288.346 -3.26983 0
-286.685 -3.27191 0
-285.025 -3.27153 0
-283.369 -3.27412 0
-281.715 -3.27636 0
-280.052 -3.27574 0
-278.394 -3.2835 0
-276.737 -3.27923 0
-275.077 -3.28386 0
-273.419 -3.28572 0
-271.765 -3.29109 0
-270.105 -3.29526 0
-268.445 -3.29555 0
-266.791 -3.30032 0
-265.133 -3.30097 0
-263.472 -3.29761 0
-261.816 -3.30203 0
-260.154 -3.30294 0
-258.496 -3.30379 0
-256.838 -3.30394 0
-255.181 -3.30815 0
-253.523 -3.31074 0
-251.862 -3.30664 0
-250.209 -3.30961 0
-248.548 -3.31412 0
-246.895 -3.31788 0
-245.238 -3.32928 0
-243.578 -3.33738 0
-241.918 -3.33574 0
-240.259 -3.33924 0
-238.603 -3.34166 0
-236.946 -3.34335 0
-235.29 -3.34776 0
-233.63 -3.34803 0
-231.97 -3.35606 0
-230.316 -3.35702 0
-228.661 -3.3626 0
-227.002 -3.37202 0
-225.347 -3.37222 0
-223.69 -3.37904 0
-222.027 -3.38154 0
-220.367 -3.38036 0
-218.711 -3.38367 0
-217.054 -3.38832 0
-215.401 -3.39211 0
-213.741 -3.39459 0
-212.086 -3.39753 0
-210.429 -3.4033 0
-208.77 -3.41282 0
-207.108 -3.40467 0
-205.453 -3.40856 0
-203.794 -3.41168 0
-202.134 -3.41474 0
-200.484 -3.42274 0
-198.827 -3.41464 0
-197.17 -3.41576 0
-195.513 -3.42216 0
-193.851 -3.42593 0
-192.197 -3.42856 0
-190.542 -3.42973 0
-188.89 -3.42953 0
-187.23 -3.43377 0
-185.572 -3.43272 0
-183.913 -3.43161 0
-182.258 -3.43485 0
-180.595 -3.43651 0
-178.938 -3.43923 0
-177.285 -3.43888 0
-175.63 -3.44259 0
-173.976 -3.44496 0
-172.315 -3.44281 0
-170.657 -3.44849 0
-169.004 -3.43991 0
-167.35 -3.44353 0
-165.691 -3.44519 0
-164.038 -3.44773 0
-162.375 -3.4526 0
-160.72 -3.44453 0
-159.062 -3.44781 0
-157.407 -3.44759 0
-155.748 -3.4539 0
-154.09 -3.4603 0
-152.431 -3.45573 0
-150.776 -3.45182 0
-149.116 -3.45226 0
-147.464 -3.45168 0
-145.805 -3.45405 0
-144.149 -3.45589 0
-142.495 -3.45386 0
-140.835 -3.45526 0
-139.176 -3.45338 0
-137.518 -3.44743 0
-135.861 -3.45154 0
-134.207 -3.44981 0
-132.546 -3.44712 0
-130.891 -3.4483 0
-129.234 -3.44933 0
-127.58 -3.45044 0
-125.929 -3.44366 0
-124.269 -3.43825 0
-122.614 -3.44122 0
-120.958 -3.44128 0
-119.299 -3.44202 0
-117.64 -3.4364 0
-115.987 -3.44083 0
-114.326 -3.44328 0
-112.672 -3.44028 0
-111.015 -3.44336 0
-109.359 -3.43444 0
-107.703 -3.43178 0
-106.05 -3.42928 0
-104.386 -3.4269 0
-102.728 -3.42809 0
-101.072 -3.42534 0
-99.4135 -3.41752 0
-97.7626 -3.41861 0
-96.1031 -3.41459 0
-94.4472 -3.41829 0
-92.7919 -3.42154 0
-91.1355 -3.41352 0
-89.4804 -3.41122 0
-87.8201 -3.41216 0
-86.1613 -3.40321 0
-84.5099 -3.40808 0
-82.8506 -3.40426 0
-81.1953 -3.40629 0
-79.5367 -3.40499 0
-77.8767 -3.40002 0
-76.2174 -3.39557 0
-74.5614 -3.39786 0
-72.908 -3.39341 0
-71.25 -3.39005 0
-69.592 -3.38901 0
-67.9342 -3.38243 0
-66.2775 -3.38606 0
-64.6181 -3.38684 0
-62.9671 -3.38631 0
-61.3064 -3.37716 0
-59.6497 -3.37408 0
-57.9923 -3.37019 0
-56.3368 -3.36764 0
-54.6778 -3.36674 0
-53.0213 -3.36475 0
-51.3685 -3.35941 0
-49.7111 -3.3603 0
-48.0601 -3.35818 0
-46.4016 -3.35818 0
-44.7471 -3.35944 0
-43.0867 -3.36511 0
-41.43 -3.35874 0
-39.7709 -3.35322 0
-38.1182 -3.351 0
-36.4628 -3.34843 0
-34.7997 -3.35405 0
-33.1433 -3.35242 0
-31.4858 -3.35294 0
-29.8252 -3.34938 0
-28.1655 -3.34922 0
-26.5095 -3.34545 0
-24.8497 -3.33479 0
-23.1966 -3.33712 0
-21.5432 -3.34621 0
-19.8885 -3.34602 0
-18.2308 -3.34132 0
-16.573 -3.34124 0
-14.9149 -3.34051 0
-13.2554 -3.34067 0
-11.6038 -3.33646 0
-9.94695 -3.33841 0
-8.28821 -3.34026 0
-6.62954 -3.33915 0
-4.96782 -3.34064 0
-3.31168 -3.33794 0
-1.65402 -3.33786 0
0 -3.3392 0
-1115.04 178.393 0
-1114.81 164.779 0
-1114.71 151.498 0
-1114.6 138.427 0
-1114.43 125.605 0
-1114.19 113.07 0
-1113.89 100.874 0
-1113.52 89.099 0
-1113.1 77.7776 0
-1112.64 66.9727 0
-1112.14 56.7021 0
-1111.61 46.9883 0
-1111.03 37.8456 0
-1110.4 29.2772 0
-1109.74 21.3032 0
-1109.13 13.862 0
-1108.57 6.86574 0
-1108.06 0.275687 0
-1107.55 -5.95521 0
-1107.01 -11.7893 0
-1106.45 -17.2265 0
-1105.89 -22.2686 0
-1105.31 -26.9074 0
-1104.73 -31.1547 0
-1104.14 -35.0217 0
-1103.54 -38.4957 0
-1102.93 -41.6015 0
-1102.32 -44.3486 0
-1101.69 -46.7525 0
-1101.06 -48.8222 0
-1100.41 -50.5862 0
-1099.74 -52.0493 0
-1099.06 -53.2379 0
-1098.36 -54.1594 0
-1097.63 -54.8376 0
-1096.87 -55.2922 0
-1096.08 -55.5263 0
-1095.26 -55.5564 0
-1094.41 -55.3968 0
-1093.53 -55.0658 0
-1092.62 -54.5741 0
-1091.68 -53.9282 0
-1090.7 -53.15 0
-1089.69 -52.2339 0
-1088.64 -51.2084 0
-1087.56 -50.0756 0
-1086.45 -48.8472 0
-1085.31 -47.5292 0
-1084.13 -46.1343 0
-1082.93 -44.6627 0
-1081.69 -43.1325 0
-1080.42 -41.5457 0
-1079.13 -39.9135 0
-1077.8 -38.2352 0
-1076.45 -36.526 0
-1075.07 -34.7851 0
-1073.66 -33.023 0
-1072.23 -31.2479 0
-1070.77 -29.458 0
-1069.29 -27.6588 0
-1067.79 -25.8619 0
-1066.26 -24.0639 0
-1064.71 -22.2703 0
-1063.14 -20.4852 0
-1061.55 -18.7124 0
-1059.94 -16.9608 0
-1058.32 -15.2206 0
-1056.68 -13.5037 0
-1055.02 -11.817 0
-1053.34 -10.1546 0
-1051.65 -8.52169 0
-1049.95 -6.92159 0
-1048.23 -5.35466 0
-1046.5 -3.81529 0
-1044.76 -2.31847 0
-1043.01 -0.861164 0
-1041.24 0.559882 0
-1039.46 1.93611 0
-1037.68 3.27364 0
-1035.89 4.56968 0
-1034.09 5.82036 0
-1032.28 7.02918 0
-1030.47 8.18925 0
-1028.65 9.30669 0
-1026.82 10.3794 0
-1024.99 11.4053 0
-1023.16 12.3831 0
-1021.32 13.3153 0
-1019.47 14.2034 0
-1017.63 15.0433 0
-1015.78 15.8385 0
-1013.93 16.5883 0
-1012.08 17.2922 0
-1010.22 17.9484 0
-1008.37 18.5598 0
-1006.51 19.1291 0
-1004.66 19.6506 0
-1002.8 20.132 0
-1000.95 20.5668 0
-999.096 20.9611 0
-997.24 21.3125 0
-995.387 21.623 0
-993.539 21.8934 0
-991.69 22.1245 0
-989.844 22.3131 0