<?xml version="1.0"?>
<VTKFile type="StructuredGrid"  version="0.1" byte_order="LittleEndian" compressor="vtkZLibDataCompressor">
  <StructuredGrid WholeExtent="0 700 0 30 0 0">
    <Piece Extent="0 700 0 30 0 0">
      <PointData Vectors="Velocity">
        <DataArray type="Float32" Name="Velocity" NumberOfComponents="3" format="ascii">
-1064.76 96.6542 0
-1065.19 86.9066 0
-1065.67 77.2874 0
-1066.18 67.8878 0
-1066.7 58.7451 0
-1067.27 49.9377 0
-1067.88 41.5356 0
-1068.52 33.6047 0
-1069.16 26.1713 0
-1069.79 19.2648 0
-1070.39 12.8962 0
-1070.96 7.09364 0
-1071.46 1.86859 0
-1071.84 -2.81893 0
-1072.06 -7.13459 0
-1072.3 -11.1947 0
-1072.54 -14.9465 0
-1072.77 -18.3449 0
-1073.01 -21.3553 0
-1073.23 -23.9743 0
-1073.4 -26.2153 0
-1073.54 -28.0907 0
-1073.63 -29.6241 0
-1073.66 -30.8394 0
-1073.62 -31.7626 0
-1073.51 -32.4157 0
-1073.33 -32.8316 0
-1073.07 -33.0299 0
-1072.73 -33.03 0
-1072.32 -32.8529 0
-1071.83 -32.5166 0
-1071.27 -32.0393 0
-1070.64 -31.4366 0
-1069.93 -30.723 0
-1069.16 -29.9081 0
-1068.32 -29.0083 0
-1067.42 -28.0359 0
-1066.45 -27 0
-1065.43 -25.9116 0
-1064.35 -24.7801 0
-1063.22 -23.6154 0
-1062.04 -22.4244 0
-1060.8 -21.2154 0
-1059.52 -19.9923 0
-1058.2 -18.7646 0
-1056.83 -17.5412 0
-1055.43 -16.3211 0
-1053.99 -15.1113 0
-1052.51 -13.916 0
-1051 -12.7404 0
-1049.47 -11.5889 0
-1047.9 -10.4635 0
-1046.3 -9.36724 0
-1044.68 -8.30173 0
-1043.04 -7.26787 0
-1041.38 -6.27373 0
-1039.7 -5.31295 0
-1038 -4.39155 0
-1036.28 -3.51009 0
-1034.55 -2.66965 0
-1032.8 -1.87056 0
-1031.05 -1.11561 0
-1029.28 -0.401881 0
-1027.5 0.269358 0
-1025.71 0.897115 0
-1023.92 1.48231 0
-1022.12 2.02479 0
-1020.32 2.52379 0
-1018.51 2.97986 0
-1016.7 3.39473 0
-1014.88 3.77071 0
-1013.07 4.1054 0
-1011.25 4.39999 0
-1009.43 4.65716 0
-1007.62 4.87849 0
-1005.8 5.06097 0
-1003.99 5.20707 0
-1002.18 5.31976 0
-1000.38 5.39847 0
-998.577 5.44601 0
-996.778 5.46146 0
-994.985 5.44656 0
-993.198 5.40336 0
-991.415 5.33503 0
-989.639 5.23799 0
-987.87 5.11753 0
-986.105 4.97652 0
-984.346 4.81106 0
-982.597 4.62675 0
-980.852 4.42056 0
-979.115 4.19866 0
-977.385 3.95717 0
-975.661 3.70417 0
-973.947 3.43432 0
-972.239 3.15196 0
-970.539 2.85895 0
-968.846 2.55684 0
-967.16 2.24544 0
-965.482 1.92691 0
-963.81 1.59967 0
-962.145 1.27104 0
-960.487 0.936116 0
-958.836 0.597714 0
-957.192 0.255917 0
-955.556 -0.0861591 0
-953.925 -0.426256 0
-952.301 -0.767268 0
-950.681 -1.1075 0
-949.067 -1.44542 0
-947.461 -1.77874 0
-945.858 -2.10653 0
-944.263 -2.43017 0
-942.671 -2.74667 0
-941.083 -3.05974 0
-939.499 -3.36517 0
-937.921 -3.66256 0
-936.346 -3.95235 0
-934.772 -4.23071 0
-933.204 -4.50088 0
-931.638 -4.76576 0
-930.076 -5.01905 0
-928.516 -5.26169 0
-926.96 -5.49515 0
-925.404 -5.7179 0
-923.851 -5.93047 0
-922.299 -6.13048 0
-920.749 -6.31936 0
-919.199 -6.49951 0
-917.651 -6.66769 0
-916.104 -6.82507 0
-914.558 -6.9691 0
-913.013 -7.10545 0
-911.468 -7.22826 0
-909.923 -7.34205 0
-908.376 -7.44198 0
-906.83 -7.53206 0
-905.284 -7.61185 0
-903.736 -7.68301 0
-902.189 -7.74459 0
-900.642 -7.79475 0
-899.092 -7.83372 0
-897.543 -7.86509 0
-895.991 -7.88973 0
-894.439 -7.90126 0
-892.884 -7.9036 0
-891.328 -7.90172 0
-889.772 -7.88774 0
-888.213 -7.86844 0
-886.651 -7.84251 0
-885.09 -7.80734 0
-883.525 -7.76509 0
-881.958 -7.71851 0
-880.391 -7.66684 0
-878.821 -7.60785 0
-877.249 -7.54193 0
-875.676 -7.47329 0
-874.103 -7.40266 0
-872.526 -7.32435 0
-870.947 -7.24197 0
-869.367 -7.15467 0
-867.785 -7.06714 0
-866.203 -6.97407 0
-864.616 -6.87991 0
-863.028 -6.78292 0
-861.438 -6.68266 0
-859.847 -6.58192 0
-858.252 -6.47712 0
-856.658 -6.37371 0
-855.06 -6.26978 0
-853.462 -6.16723 0
-851.861 -6.06172 0
-850.26 -5.95452 0
-848.658 -5.84709 0
-847.055 -5.7433 0
-845.447 -5.64092 0
-843.839 -5.53763 0
-842.232 -5.43395 0
-840.621 -5.32895 0
-839.007 -5.22571 0
-837.396 -5.12981 0
-835.78 -5.03271 0
-834.164 -4.93995 0
-832.547 -4.84584 0
-830.93 -4.75568 0
-829.312 -4.66534 0
-827.692 -4.57886 0
-826.07 -4.49665 0
-824.451 -4.41573 0
-822.83 -4.33881 0
-821.209 -4.26354 0
-819.587 -4.1906 0
-817.963 -4.11906 0
-816.342 -4.05368 0
-814.719 -3.99189 0
-813.096 -3.93008 0
-811.473 -3.87157 0
-809.847 -3.81819 0
-808.222 -3.76761 0
-806.598 -3.71974 0
-804.972 -3.67315 0
-803.345 -3.63295 0
-801.718 -3.59433 0
-800.092 -3.56212 0
-798.467 -3.52978 0
-796.841 -3.50045 0
-795.218 -3.4726 0
-793.591 -3.45095 0
-791.968 -3.43227 0
-790.343 -3.41242 0
-788.715 -3.40063 0
-787.092 -3.38901 0
-785.469 -3.38006 0
-783.843 -3.37606 0
-782.22 -3.37426 0
-780.597 -3.37402 0
-778.972 -3.37826 0
-777.351 -3.38084 0
-775.731 -3.38682 0
-774.107 -3.39703 0
-772.489 -3.40684 0
-770.87 -3.42073 0
-769.25 -3.43404 0
-767.628 -3.45656 0
-766.008 -3.47036 0
-764.391 -3.49254 0
-762.772 -3.51564 0
-761.157 -3.53731 0
-759.54 -3.5618 0
-757.925 -3.5885 0
-756.309 -3.61381 0
-754.692 -3.64492 0
-753.078 -3.67614 0
-751.462 -3.7059 0
-749.849 -3.73793 0
-748.236 -3.77099 0
-746.622 -3.80531 0
-745.011 -3.84076 0
-743.401 -3.87433 0
-741.79 -3.90811 0
-740.18 -3.94494 0
-738.569 -3.98304 0
-736.96 -4.01858 0
-735.354 -4.05495 0
-733.745 -4.08837 0
-732.137 -4.12427 0
-730.528 -4.15786 0
-728.919 -4.19483 0
-727.314 -4.23287 0
-725.711 -4.26634 0
-724.102 -4.29894 0
-722.498 -4.33486 0
-720.89 -4.37102 0
-719.285 -4.40853 0
-717.679 -4.44523 0
-716.075 -4.47298 0
-714.472 -4.50662 0
-712.869 -4.54157 0
-711.268 -4.56959 0
-709.665 -4.60206 0
-708.06 -4.62927 0
-706.457 -4.65998 0
-704.853 -4.68676 0
-703.25 -4.71232 0
-701.649 -4.73934 0
-700.048 -4.76503 0
-698.448 -4.79187 0
-696.845 -4.81311 0
-695.245 -4.83761 0
-693.637 -4.85921 0
-692.036 -4.88044 0
-690.438 -4.9014 0
-688.838 -4.91983 0
-687.238 -4.94109 0
-685.641 -4.95799 0
-684.042 -4.97209 0
-682.438 -4.98727 0
-680.836 -5.00421 0
-679.235 -5.01717 0
-677.633 -5.02744 0
-676.031 -5.03708 0
-674.433 -5.04892 0
-672.836 -5.05848 0
-671.235 -5.06869 0
-669.633 -5.07711 0
-668.032 -5.08521 0
-666.433 -5.08809 0
-664.833 -5.09455 0
-663.232 -5.0951 0
-661.626 -5.09758 0
-660.025 -5.1014 0
-658.423 -5.10508 0
-656.818 -5.10713 0
-655.217 -5.10601 0
-653.616 -5.10799 0
-652.012 -5.10751 0
-650.412 -5.10586 0
-648.811 -5.10498 0
-647.21 -5.1014 0
-645.607 -5.09706 0
-644.004 -5.09233 0
-642.401 -5.08853 0
-640.798 -5.07917 0
-639.192 -5.07453 0
-637.59 -5.06783 0
-635.989 -5.06137 0
-634.383 -5.05583 0
-632.781 -5.04647 0
-631.175 -5.0399 0
-629.569 -5.03077 0
-627.967 -5.02316 0
-626.365 -5.01241 0
-624.762 -5.00335 0
-623.156 -4.99303 0
-621.548 -4.98147 0
-619.945 -4.97524 0
-618.338 -4.96841 0
-616.736 -4.95478 0
-615.13 -4.94384 0
-613.524 -4.93288 0
-611.917 -4.92469 0
-610.313 -4.90941 0
-608.705 -4.89905 0
-607.101 -4.89117 0
-605.491 -4.87903 0
-603.886 -4.86467 0
-602.279 -4.85716 0
-600.672 -4.8457 0
-599.069 -4.83511 0
-597.462 -4.82622 0
-595.854 -4.81251 0
-594.245 -4.80125 0
-592.641 -4.7924 0
-591.031 -4.77684 0
-589.42 -4.76673 0
-587.815 -4.75804 0
-586.206 -4.74702 0
-584.595 -4.73759 0
-582.987 -4.72932 0
-581.382 -4.72156 0
-579.776 -4.71346 0
-578.168 -4.70398 0
-576.557 -4.6971 0
-574.95 -4.69305 0
-573.344 -4.68223 0
-571.737 -4.67526 0
-570.125 -4.66511 0
-568.516 -4.6631 0
-566.908 -4.657 0
-565.302 -4.64603 0
-563.69 -4.642 0
-562.084 -4.63501 0
-560.476 -4.62859 0
-558.871 -4.62074 0
-557.262 -4.61673 0
-555.653 -4.61037 0
-554.043 -4.60964 0
-552.437 -4.60201 0
-550.827 -4.6017 0
-549.217 -4.59799 0
-547.604 -4.59495 0
-545.998 -4.59271 0
-544.389 -4.59205 0
-542.783 -4.59117 0
-541.174 -4.58694 0
-539.565 -4.58995 0
-537.956 -4.58891 0
-536.352 -4.58229 0
-534.745 -4.58599 0
-533.135 -4.586 0
-531.525 -4.58101 0
-529.919 -4.58067 0
-528.309 -4.58142 0
-526.704 -4.57932 0
-525.097 -4.58169 0
-523.489 -4.58881 0
-521.876 -4.58132 0
-520.269 -4.5827 0
-518.66 -4.58451 0
-517.055 -4.58778 0
-515.444 -4.59119 0
-513.837 -4.5924 0
-512.23 -4.59428 0
-510.623 -4.59317 0
-509.016 -4.59798 0
-507.409 -4.59903 0
-505.804 -4.60237 0
-504.199 -4.60417 0
-502.593 -4.60403 0
-500.988 -4.60662 0
-499.378 -4.61203 0
-497.772 -4.61433 0
-496.165 -4.61824 0
-494.561 -4.62383 0
-492.951 -4.63457 0
-491.341 -4.63688 0
-489.734 -4.64119 0
-488.126 -4.6425 0
-486.519 -4.64944 0
-484.911 -4.65392 0
-483.303 -4.65406 0
-481.695 -4.66206 0
-480.088 -4.66394 0
-478.483 -4.66606 0
-476.876 -4.66909 0
-475.272 -4.67589 0
-473.668 -4.67697 0
-472.06 -4.6798 0
-470.45 -4.68565 0
-468.845 -4.68926 0
-467.239 -4.69563 0
-465.634 -4.69498 0
-464.028 -4.69852 0
-462.424 -4.70411 0
-460.813 -4.707 0
-459.205 -4.71503 0
-457.605 -4.71601 0
-455.993 -4.7202 0
-454.391 -4.72445 0
-452.786 -4.72963 0
-451.182 -4.73084 0
-449.575 -4.7328 0
-447.965 -4.73311 0
-446.36 -4.73793 0
-444.749 -4.74196 0
-443.147 -4.74661 0
-441.541 -4.74959 0
-439.935 -4.75376 0
-438.334 -4.75634 0
-436.726 -4.75995 0
-435.12 -4.7601 0
-433.513 -4.76616 0
-431.908 -4.76266 0
-430.3 -4.7634 0
-428.696 -4.76451 0
-427.091 -4.77092 0
-425.486 -4.77554 0
-423.879 -4.77515 0
-422.272 -4.77773 0
-420.668 -4.77788 0
-419.06 -4.7804 0
-417.454 -4.78147 0
-415.849 -4.78285 0
-414.24 -4.78304 0
-412.642 -4.78154 0
-411.034 -4.78796 0
-409.425 -4.78621 0
-407.819 -4.78546 0
-406.212 -4.79073 0
-404.603 -4.79193 0
-403.001 -4.79843 0
-401.397 -4.79838 0
-399.791 -4.79776 0
-398.185 -4.79714 0
-396.577 -4.79623 0
-394.969 -4.80245 0
-393.367 -4.80231 0
-391.763 -4.79744 0
-390.155 -4.79928 0
-388.554 -4.79936 0
-386.944 -4.79663 0
-385.344 -4.79471 0
-383.737 -4.80166 0
-382.132 -4.79808 0
-380.521 -4.8002 0
-378.914 -4.80246 0
-377.309 -4.8041 0
-375.708 -4.80096 0
-374.098 -4.79996 0
-372.492 -4.79814 0
-370.886 -4.80162 0
-369.279 -4.80071 0
-367.675 -4.79974 0
-366.071 -4.80151 0
-364.462 -4.795 0
-362.851 -4.79169 0
-361.249 -4.79514 0
-359.643 -4.79128 0
-358.036 -4.78994 0
-356.432 -4.79695 0
-354.826 -4.79669 0
-353.219 -4.7925 0
-351.617 -4.79335 0
-350.01 -4.79247 0
-348.405 -4.79078 0
-346.798 -4.78451 0
-345.198 -4.78381 0
-343.593 -4.78399 0
-341.985 -4.78403 0
-340.38 -4.78472 0
-338.773 -4.78403 0
-337.167 -4.78096 0
-335.561 -4.77827 0
-333.956 -4.78422 0
-332.35 -4.78335 0
-330.746 -4.77832 0
-329.14 -4.77585 0
-327.533 -4.77699 0
-325.927 -4.77781 0
-324.324 -4.77618 0
-322.717 -4.77105 0
-321.112 -4.7693 0
-319.506 -4.76802 0
-317.898 -4.76687 0
-316.292 -4.76134 0
-314.686 -4.76276 0
-313.078 -4.76022 0
-311.469 -4.76635 0
-309.865 -4.76736 0
-308.262 -4.76232 0
-306.657 -4.76581 0
-305.05 -4.7663 0
-303.438 -4.76073 0
-301.831 -4.75594 0
-300.223 -4.75969 0
-298.621 -4.75505 0
-297.014 -4.75328 0
-295.415 -4.75425 0
-293.808 -4.75229 0
-292.199 -4.75328 0
-290.596 -4.75154 0
-288.988 -4.75823 0
-287.381 -4.75594 0
-285.771 -4.7515 0
-284.164 -4.75229 0
-282.56 -4.75384 0
-280.954 -4.75386 0
-279.349 -4.75308 0
-277.749 -4.74967 0
-276.142 -4.74585 0
-274.533 -4.75221 0
-272.928 -4.74644 0
-271.322 -4.74977 0
-269.711 -4.75227 0
-268.111 -4.75321 0
-266.507 -4.75143 0
-264.901 -4.75454 0
-263.294 -4.74495 0
-261.69 -4.74882 0
-260.083 -4.74414 0
-258.482 -4.73886 0
-256.876 -4.74451 0
-255.268 -4.74795 0
-253.656 -4.73782 0
-252.046 -4.74154 0
-250.443 -4.7456 0
-248.835 -4.74814 0
-247.229 -4.74794 0
-245.626 -4.74328 0
-244.019 -4.7484 0
-242.413 -4.74911 0
-240.802 -4.75314 0
-239.197 -4.74981 0
-237.59 -4.74844 0
-235.988 -4.75348 0
-234.38 -4.75435 0
-232.772 -4.75298 0
-231.166 -4.75133 0
-229.565 -4.74981 0
-227.957 -4.74867 0
-226.354 -4.74392 0
-224.752 -4.75457 0
-223.14 -4.74844 0
-221.534 -4.75184 0
-219.925 -4.74639 0
-218.323 -4.75043 0
-216.717 -4.75394 0
-215.106 -4.75513 0
-213.503 -4.75882 0
-211.902 -4.75842 0
-210.295 -4.75669 0
-208.685 -4.75348 0
-207.079 -4.75296 0
-205.476 -4.75411 0
-203.868 -4.75112 0
-202.267 -4.75818 0
-200.661 -4.74987 0
-199.053 -4.75222 0
-197.446 -4.75072 0
-195.843 -4.75714 0
-194.238 -4.75716 0
-192.63 -4.75704 0
-191.026 -4.76434 0
-189.424 -4.76494 0
-187.819 -4.75292 0
-186.207 -4.76077 0
-184.605 -4.76121 0
-183.005 -4.76341 0
-181.397 -4.7559 0
-179.79 -4.75621 0
-178.188 -4.75882 0
-176.578 -4.7567 0
-174.971 -4.75631 0
-173.366 -4.76234 0
-171.764 -4.76079 0
-170.159 -4.75272 0
-168.556 -4.75075 0
-166.948 -4.75365 0
-165.34 -4.75557 0
-163.733 -4.75457 0
-162.127 -4.75051 0
-160.526 -4.7472 0
-158.916 -4.75104 0
-157.312 -4.75468 0
-155.708 -4.75828 0
-154.097 -4.76068 0
-152.494 -4.76538 0
-150.895 -4.76176 0
-149.288 -4.76479 0
-147.68 -4.76293 0
-146.075 -4.75771 0
-144.472 -4.7587 0
-142.869 -4.76004 0
-141.262 -4.76195 0
-139.655 -4.76243 0
-138.05 -4.76292 0
-136.445 -4.75993 0
-134.838 -4.76122 0
-133.234 -4.7613 0
-131.626 -4.76304 0
-130.019 -4.76317 0
-128.416 -4.76364 0
-126.814 -4.76488 0
-125.212 -4.76074 0
-123.606 -4.75381 0
-121.996 -4.75897 0
-120.394 -4.76051 0
-118.787 -4.7583 0
-117.174 -4.75888 0
-115.567 -4.76228 0
-113.964 -4.75952 0
-112.359 -4.76124 0
-110.753 -4.76009 0
-109.151 -4.76481 0
-107.549 -4.76548 0
-105.943 -4.76666 0
-104.338 -4.75985 0
-102.731 -4.76165 0
-101.124 -4.76085 0
-99.5169 -4.76054 0
-97.91 -4.7627 0
-96.3066 -4.7608 0
-94.7042 -4.76223 0
-93.0971 -4.76277 0
-91.4935 -4.76673 0
-89.887 -4.77047 0
-88.2825 -4.77105 0
-86.6791 -4.77391 0
-85.0728 -4.76895 0
-83.4684 -4.76697 0
-81.864 -4.76707 0
-80.2568 -4.76358 0
-78.6527 -4.76768 0
-77.0466 -4.76997 0
-75.4437 -4.76887 0
-73.8396 -4.76948 0
-72.2317 -4.76803 0
-70.6292 -4.76477 0
-69.0212 -4.76331 0
-67.4128 -4.76623 0
-65.807 -4.76829 0
-64.1999 -4.76559 0
-62.5975 -4.76677 0
-60.9908 -4.76703 0
-59.387 -4.76853 0
-57.7812 -4.76828 0
-56.1774 -4.76613 0
-54.5741 -4.76926 0
-52.9671 -4.76918 0
-51.3595 -4.76495 0
-49.7565 -4.76692 0
-48.1536 -4.76696 0
-46.5458 -4.76438 0
-44.9447 -4.76693 0
-43.3397 -4.76851 0
-41.7324 -4.766 0
-40.1321 -4.76745 0
-38.5246 -4.76485 0
-36.9186 -4.76171 0
-35.3128 -4.76092 0
-33.706 -4.76181 0
-32.1007 -4.76058 0
-30.4958 -4.75932 0
-28.8923 -4.76494 0
-27.2879 -4.76389 0
-25.6798 -4.76352 0
-24.0745 -4.76705 0
-22.4699 -4.76419 0
-20.8636 -4.7663 0
-19.2592 -4.75941 0
-17.6542 -4.75891 0
-16.0465 -4.75539 0
-14.4405 -4.75792 0
-12.8332 -4.75857 0
-11.2309 -4.76013 0
-9.62386 -4.75988 0
-8.02079 -4.76088 0
-6.42034 -4.75789 0
-4.81707 -4.75928 0
-3.21106 -4.75462 0
-1.60094 -4.75262 0
0 -4.75892 0
-1074.5 97.1159 0
-1074.83 87.3144 0
-1075.14 77.6651 0
-1075.44 68.2388 0
-1075.7 59.0651 0
-1075.92 50.2066 0
-1076.1 41.7502 0
-1076.25 33.768 0
-1076.36 26.2944 0
-1076.44 19.3598 0
-1076.47 12.9793 0
-1076.43 7.1747 0
-1076.35 1.95637 0
-1076.27 -2.71808 0
-1076.27 -7.03851 0
-1076.23 -11.1072 0
-1076.15 -14.8684 0
-1076.04 -18.2692 0
-1075.89 -21.2802 0
-1075.72 -23.8973 0
-1075.52 -26.1243 0
-1075.31 -27.9813 0
-1075.06 -29.4844 0
-1074.78 -30.6598 0
-1074.45 -31.537 0
-1074.08 -32.1376 0
-1073.67 -32.495 0
-1073.19 -32.6296 0
-1072.67 -32.5662 0
-1072.08 -32.3255 0
-1071.44 -31.9243 0
-1070.75 -31.385 0
-1069.99 -30.7185 0
-1069.18 -29.9428 0
-1068.32 -29.0671 0
-1067.4 -28.1092 0
-1066.43 -27.0793 0
-1065.41 -25.9861 0
-1064.34 -24.8461 0
-1063.22 -23.6643 0
-1062.06 -22.4492 0
-1060.85 -21.2119 0
-1059.6 -19.9568 0
-1058.32 -18.6929 0
-1056.99 -17.4274 0
-1055.63 -16.1635 0
-1054.24 -14.9085 0
-1052.81 -13.6639 0
-1051.35 -12.4388 0
-1049.86 -11.2337 0
-1048.35 -10.0535 0
-1046.81 -8.90265 0
-1045.24 -7.78048 0
-1043.65 -6.69497 0
-1042.05 -5.64161 0
-1040.42 -4.62731 0
-1038.78 -3.65003 0
-1037.12 -2.71206 0
-1035.44 -1.81705 0
-1033.75 -0.962758 0
-1032.04 -0.152505 0
-1030.33 0.614616 0
-1028.6 1.33672 0
-1026.87 2.01654 0
-1025.12 2.65164 0
-1023.37 3.24327 0
-1021.62 3.79053 0
-1019.85 4.29507 0
-1018.09 4.7543 0
-1016.31 5.17122 0
-1014.54 5.54805 0
-1012.76 5.8839 0
-1010.98 6.17996 0
-1009.21 6.43767 0
-1007.43 6.65695 0
-1005.65 6.83696 0
-1003.87 6.98396 0
-1002.1 7.09164 0
-1000.32 7.16733 0
-998.55 7.21131 0
-996.783 7.22263 0
-995.018 7.20301 0
-993.258 7.15555 0
-991.501 7.08093 0
-989.749 6.97961 0
-988.002 6.85524 0
-986.26 6.70746 0
-984.523 6.5359 0
-982.791 6.34429 0
-981.066 6.133 0
-979.346 5.9033 0
-977.632 5.65771 0
-975.923 5.39703 0
-974.221 5.11993 0
-972.524 4.83175 0
-970.834 4.53201 0
-969.15 4.22185 0
-967.472 3.90477 0
-965.801 3.57958 0
-964.135 3.24658 0
-962.475 2.9098 0
-960.821 2.56947 0
-959.174 2.22546 0
-957.529 1.87781 0
-955.893 1.52953 0
-954.263 1.18282 0
-952.637 0.837042 0
-951.016 0.493196 0
-949.399 0.149001 0
-947.788 -0.189145 0
-946.182 -0.521529 0
-944.578 -0.849685 0
-942.981 -1.17176 0
-941.387 -1.48809 0
-939.797 -1.7977 0
-938.209 -2.0983 0
-936.626 -2.3911 0
-935.045 -2.67355 0
-933.467 -2.94704 0
-931.893 -3.21373 0
-930.32 -3.46958 0
-928.751 -3.71523 0
-927.184 -3.94992 0
-925.618 -4.17454 0
-924.054 -4.38787 0
-922.492 -4.59075 0
-920.932 -4.78159 0
-919.37 -4.96133 0
-917.812 -5.13064 0
-916.253 -5.28916 0
-914.697 -5.43506 0
-913.141 -5.57066 0
-911.584 -5.69446 0
-910.027 -5.80482 0
-908.47 -5.90756 0
-906.914 -5.99752 0
-905.358 -6.07801 0
-903.802 -6.14828 0
-902.243 -6.20807 0
-900.684 -6.25719 0
-899.126 -6.29642 0
-897.567 -6.32645 0
-896.006 -6.3488 0
-894.445 -6.36009 0
-892.883 -6.36243 0
-891.318 -6.35648 0
-889.755 -6.34288 0
-888.188 -6.32181 0
-886.621 -6.29435 0
-885.053 -6.25764 0
-883.482 -6.21279 0
-881.91 -6.16566 0
-880.336 -6.11145 0
-878.76 -6.04958 0
-877.184 -5.98462 0
-875.607 -5.91363 0
-874.029 -5.84006 0
-872.447 -5.75936 0
-870.864 -5.67701 0
-869.281 -5.58812 0
-867.696 -5.49856 0
-866.11 -5.40432 0
-864.521 -5.30747 0
-862.93 -5.20943 0
-861.339 -5.10813 0
-859.745 -5.00455 0
-858.15 -4.89878 0
-856.555 -4.79415 0
-854.957 -4.68905 0
-853.36 -4.58272 0
-851.759 -4.47554 0
-850.156 -4.36849 0
-848.554 -4.26142 0
-846.949 -4.15362 0
-845.343 -4.05072 0
-843.737 -3.94452 0
-842.13 -3.8413 0
-840.519 -3.73385 0
-838.909 -3.63162 0
-837.297 -3.53266 0
-835.684 -3.43545 0
-834.071 -3.33995 0
-832.458 -3.24615 0
-830.842 -3.15431 0
-829.225 -3.06445 0
-827.609 -2.97724 0
-825.993 -2.89322 0
-824.374 -2.81339 0
-822.756 -2.73389 0
-821.137 -2.6584 0
-819.518 -2.58514 0
-817.898 -2.51369 0
-816.28 -2.44833 0
-814.658 -2.38481 0
-813.036 -2.32323 0
-811.416 -2.265 0
-809.796 -2.21179 0
-808.173 -2.16061 0
-806.552 -2.11302 0
-804.93 -2.06674 0
-803.307 -2.02597 0
-801.683 -1.98651 0
-800.061 -1.95351 0
-798.437 -1.92157 0
-796.814 -1.89219 0
-795.193 -1.86513 0
-793.571 -1.8449 0
-791.949 -1.82454 0
-790.326 -1.80598 0
-788.704 -1.79362 0
-787.081 -1.78265 0
-785.46 -1.77533 0
-783.839 -1.77062 0
-782.218 -1.76825 0
-780.599 -1.76939 0
-778.977 -1.77249 0
-777.356 -1.77737 0
-775.737 -1.78335 0
-774.118 -1.79195 0
-772.499 -1.80551 0
-770.884 -1.81809 0
-769.266 -1.83352 0
-767.647 -1.85027 0
-766.029 -1.86982 0
-764.412 -1.89125 0
-762.796 -1.91258 0
-761.18 -1.93748 0
-759.566 -1.96473 0
-757.951 -1.98945 0
-756.338 -2.01825 0
-754.723 -2.04816 0
-753.109 -2.07672 0
-751.495 -2.10946 0
-749.882 -2.14267 0
-748.27 -2.17443 0
-746.659 -2.21084 0
-745.047 -2.24593 0
-743.436 -2.27917 0
-741.826 -2.315 0
-740.215 -2.3508 0
-738.606 -2.389 0
-736.997 -2.42657 0
-735.386 -2.46168 0
-733.78 -2.49646 0
-732.171 -2.53309 0
-730.565 -2.56774 0
-728.957 -2.60459 0
-727.349 -2.6402 0
-725.741 -2.6754 0
-724.137 -2.71256 0
-722.531 -2.74639 0
-720.927 -2.78369 0
-719.322 -2.81918 0
-717.715 -2.85404 0
-716.108 -2.88568 0
-714.503 -2.92151 0
-712.901 -2.95096 0
-711.298 -2.98404 0
-709.695 -3.01332 0
-708.089 -3.04336 0
-706.485 -3.07157 0
-704.882 -3.10027 0
-703.279 -3.12625 0
-701.676 -3.15155 0
-700.073 -3.17898 0
-698.471 -3.20494 0
-696.869 -3.22892 0
-695.264 -3.25135 0
-693.662 -3.2727 0
-692.06 -3.29649 0
-690.459 -3.31782 0
-688.859 -3.33682 0
-687.258 -3.35452 0
-685.657 -3.37348 0
-684.055 -3.38683 0
-682.453 -3.40308 0
-680.851 -3.41723 0
-679.248 -3.43016 0
-677.645 -3.44125 0
-676.045 -3.4531 0
-674.444 -3.46499 0
-672.843 -3.47497 0
-671.241 -3.48348 0
-669.64 -3.49163 0
-668.037 -3.49965 0
-666.435 -3.50611 0
-664.833 -3.50889 0
-663.23 -3.50996 0
-661.628 -3.51214 0
-660.026 -3.51535 0
-658.425 -3.51777 0
-656.823 -3.52059 0
-655.219 -3.52194 0
-653.617 -3.52169 0
-652.014 -3.52257 0
-650.41 -3.52393 0
-648.808 -3.51995 0
-647.207 -3.51304 0
-645.604 -3.50927 0
-643.998 -3.50625 0
-642.394 -3.49926 0
-640.79 -3.49386 0
-639.188 -3.48591 0
-637.585 -3.48163 0
-635.979 -3.47209 0
-634.374 -3.46874 0
-632.771 -3.45979 0
-631.167 -3.45091 0
-629.563 -3.4426 0
-627.958 -3.43652 0
-626.353 -3.42576 0
-624.75 -3.4172 0
-623.143 -3.40487 0
-621.541 -3.39452 0
-619.936 -3.38719 0
-618.33 -3.37863 0
-616.726 -3.36777 0
-615.12 -3.35277 0
-613.512 -3.34138 0
-611.907 -3.33397 0
-610.302 -3.32035 0
-608.697 -3.30986 0
-607.09 -3.2989 0
-605.482 -3.2886 0
-603.877 -3.27661 0
-602.27 -3.26552 0
-600.662 -3.25531 0
-599.056 -3.24668 0
-597.449 -3.23516 0
-595.84 -3.22301 0
-594.235 -3.21154 0
-592.628 -3.19774 0
-591.02 -3.18621 0
-589.412 -3.17596 0
-587.803 -3.1641 0
-586.193 -3.1543 0
-584.586 -3.14771 0
-582.982 -3.13842 0
-581.373 -3.13153 0
-579.765 -3.12113 0
-578.156 -3.11295 0
-576.55 -3.10595 0
-574.94 -3.09962 0
-573.331 -3.09162 0
-571.724 -3.08441 0
-570.118 -3.07364 0
-568.511 -3.07064 0
-566.903 -3.06383 0
-565.294 -3.05597 0
-563.689 -3.05164 0
-562.078 -3.04648 0
-560.473 -3.03711 0
-558.864 -3.03193 0
-557.256 -3.0255 0
-555.648 -3.01932 0
-554.041 -3.01716 0
-552.431 -3.01234 0
-550.822 -3.00968 0
-549.212 -3.00487 0
-547.602 -3.00329 0
-545.997 -3.00266 0
-544.388 -2.99947 0
-542.781 -2.99985 0
-541.173 -2.99685 0
-539.566 -2.99756 0
-537.958 -2.99549 0
-536.35 -2.9916 0
-534.741 -2.9932 0
-533.132 -2.99425 0
-531.526 -2.99074 0
-529.918 -2.98746 0
-528.311 -2.99119 0
-526.702 -2.98885 0
-525.095 -2.99083 0
-523.483 -2.99458 0
-521.875 -2.99266 0
-520.269 -2.99098 0
-518.663 -2.99353 0
-517.057 -2.99672 0
-515.448 -2.99724 0
-513.841 -3.00203 0
-512.23 -3.00431 0
-510.627 -3.00549 0
-509.021 -3.0063 0
-507.415 -3.00664 0
-505.807 -3.01587 0
-504.202 -3.0131 0
-502.595 -3.01489 0
-500.986 -3.01604 0
-499.376 -3.02153 0
-497.772 -3.02517 0
-496.169 -3.03104 0
-494.563 -3.03254 0
-492.955 -3.04151 0
-491.349 -3.04438 0
-489.739 -3.04637 0
-488.129 -3.05089 0
-486.525 -3.05714 0
-484.917 -3.06234 0
-483.312 -3.06359 0
-481.7 -3.06936 0
-480.093 -3.07682 0
-478.49 -3.07464 0
-476.883 -3.07908 0
-475.278 -3.08788 0
-473.672 -3.08873 0
-472.064 -3.08973 0
-470.457 -3.09574 0
-468.85 -3.09765 0
-467.24 -3.10368 0
-465.637 -3.10869 0
-464.033 -3.11107 0
-462.427 -3.11304 0
-460.82 -3.11413 0
-459.215 -3.12164 0
-457.608 -3.12799 0
-456.001 -3.13274 0
-454.395 -3.13638 0
-452.787 -3.13908 0
-451.18 -3.14029 0
-449.575 -3.14218 0
-447.971 -3.14412 0
-446.364 -3.14879 0
-444.758 -3.15355 0
-443.149 -3.1573 0
-441.544 -3.16183 0
-439.938 -3.16467 0
-438.334 -3.16741 0
-436.729 -3.16778 0
-435.123 -3.17209 0
-433.512 -3.17154 0
-431.907 -3.17215 0
-430.301 -3.1762 0
-428.698 -3.17901 0
-427.093 -3.18318 0
-425.488 -3.18236 0
-423.878 -3.18614 0
-422.273 -3.19005 0
-420.668 -3.18725 0
-419.062 -3.19001 0
-417.454 -3.19329 0
-415.852 -3.1958 0
-414.245 -3.19447 0
-412.637 -3.1934 0
-411.032 -3.19653 0
-409.427 -3.19595 0
-407.819 -3.19748 0
-406.212 -3.19854 0
-404.607 -3.20297 0
-403.001 -3.2084 0
-401.396 -3.20752 0
-399.791 -3.20587 0
-398.187 -3.20697 0
-396.581 -3.20768 0
-394.975 -3.2106 0
-393.368 -3.20981 0
-391.762 -3.20842 0
-390.157 -3.20817 0
-388.55 -3.20685 0
-386.945 -3.20936 0
-385.341 -3.21075 0
-383.736 -3.21085 0
-382.128 -3.2081 0
-380.522 -3.2089 0
-378.917 -3.21227 0
-377.312 -3.21257 0
-375.706 -3.21343 0
-374.1 -3.21105 0
-372.494 -3.21021 0
-370.89 -3.21004 0
-369.283 -3.20819 0
-367.674 -3.2112 0
-366.067 -3.20919 0
-364.457 -3.20302 0
-362.856 -3.20339 0
-361.246 -3.20582 0
-359.643 -3.2059 0
-358.039 -3.20071 0
-356.435 -3.20565 0
-354.83 -3.20392 0
-353.22 -3.20361 0
-351.614 -3.20646 0
-350.007 -3.20012 0
-348.404 -3.20206 0
-346.8 -3.1985 0
-345.196 -3.19658 0
-343.59 -3.19674 0
-341.985 -3.1964 0
-340.38 -3.19793 0
-338.774 -3.19286 0
-337.168 -3.19221 0
-335.561 -3.19116 0
-333.953 -3.19458 0
-332.35 -3.19159 0
-330.741 -3.18762 0
-329.141 -3.18935 0
-327.534 -3.18726 0
-325.929 -3.18917 0
-324.322 -3.18516 0
-322.716 -3.18262 0
-321.106 -3.17782 0
-319.502 -3.1781 0
-317.896 -3.17586 0
-316.291 -3.17498 0
-314.685 -3.17361 0
-313.077 -3.16953 0
-311.469 -3.17655 0
-309.864 -3.17585 0
-308.261 -3.17351 0
-306.654 -3.17274 0
-305.047 -3.17183 0
-303.44 -3.16799 0
-301.834 -3.17206 0
-300.229 -3.17164 0
-298.62 -3.16638 0
-297.014 -3.16547 0
-295.41 -3.1643 0
-293.807 -3.16448 0
-292.2 -3.16283 0
-290.594 -3.15977 0
-288.986 -3.16196 0
-287.38 -3.16148 0
-285.774 -3.16204 0
-284.167 -3.16571 0
-282.561 -3.16453 0
-280.953 -3.16092 0
-279.349 -3.16506 0
-277.748 -3.15885 0
-276.142 -3.15834 0
-274.533 -3.15851 0
-272.929 -3.15852 0
-271.318 -3.15892 0
-269.715 -3.1663 0
-268.112 -3.16304 0
-266.504 -3.16203 0
-264.899 -3.16182 0
-263.293 -3.15992 0
-261.691 -3.15628 0
-260.084 -3.15726 0
-258.477 -3.15157 0
-256.87 -3.15297 0
-255.264 -3.15713 0
-253.656 -3.15432 0
-252.049 -3.15448 0
-250.444 -3.15537 0
-248.839 -3.15727 0
-247.232 -3.15685 0
-245.626 -3.15375 0
-244.019 -3.15931 0
-242.409 -3.15889 0
-240.803 -3.15721 0
-239.197 -3.15971 0
-237.594 -3.15702 0
-235.987 -3.16199 0
-234.382 -3.16398 0
-232.773 -3.16343 0
-231.166 -3.16332 0
-229.56 -3.16396 0
-227.961 -3.16198 0
-226.354 -3.15951 0
-224.75 -3.16404 0
-223.143 -3.16133 0
-221.534 -3.16061 0
-219.93 -3.16176 0
-218.324 -3.16152 0
-216.718 -3.16045 0
-215.114 -3.16747 0
-213.504 -3.17052 0
-211.901 -3.16814 0
-210.292 -3.16547 0
-208.687 -3.16268 0
-207.081 -3.16685 0
-205.478 -3.16605 0
-203.87 -3.16335 0
-202.265 -3.16873 0
-200.66 -3.16279 0
-199.052 -3.15892 0
-197.449 -3.163 0
-195.846 -3.16856 0
-194.242 -3.16923 0
-192.635 -3.16891 0
-191.028 -3.17168 0
-189.424 -3.17132 0
-187.819 -3.1672 0
-186.216 -3.16826 0
-184.607 -3.17024 0
-183 -3.17155 0
-181.395 -3.16836 0
-179.791 -3.16636 0
-178.184 -3.16574 0
-176.58 -3.16844 0
-174.973 -3.16621 0
-173.372 -3.1697 0
-171.761 -3.16971 0
-170.156 -3.16558 0
-168.554 -3.16446 0
-166.947 -3.16482 0
-165.34 -3.16472 0
-163.732 -3.16577 0
-162.128 -3.16463 0
-160.522 -3.15854 0
-158.923 -3.15995 0
-157.317 -3.16546 0
-155.708 -3.16716 0
-154.101 -3.17037 0
-152.495 -3.17129 0
-150.891 -3.17189 0
-149.286 -3.17422 0
-147.682 -3.17203 0
-146.077 -3.17064 0
-144.472 -3.17303 0
-142.865 -3.17343 0
-141.264 -3.17628 0
-139.659 -3.17374 0
-138.054 -3.17294 0
-136.449 -3.17372 0
-134.841 -3.17157 0
-133.232 -3.17043 0
-131.628 -3.17432 0
-130.023 -3.17493 0
-128.421 -3.17594 0
-126.815 -3.17469 0
-125.207 -3.17179 0
-123.604 -3.16685 0
-121.996 -3.16639 0
-120.389 -3.16937 0
-118.784 -3.16697 0
-117.178 -3.1681 0
-115.572 -3.16737 0
-113.965 -3.17314 0
-112.362 -3.17068 0
-110.757 -3.17427 0
-109.153 -3.17286 0
-107.548 -3.17555 0
-105.942 -3.1747 0
-104.334 -3.17389 0
-102.729 -3.17293 0
-101.12 -3.16999 0
-99.517 -3.17496 0
-97.9125 -3.17395 0
-96.308 -3.17348 0
-94.7038 -3.17435 0
-93.0993 -3.17586 0
-91.498 -3.17731 0
-89.8922 -3.17989 0
-88.2845 -3.18057 0
-86.6794 -3.18335 0
-85.0728 -3.18057 0
-83.468 -3.18007 0
-81.8633 -3.17724 0
-80.2593 -3.17706 0
-78.6529 -3.17809 0
-77.0489 -3.1803 0
-75.4426 -3.18236 0
-73.8364 -3.17821 0
-72.2315 -3.18019 0
-70.6273 -3.17625 0
-69.0232 -3.17526 0
-67.4185 -3.17542 0
-65.8106 -3.17662 0
-64.2022 -3.17882 0
-62.598 -3.17607 0
-60.996 -3.17817 0
-59.3898 -3.18036 0
-57.7841 -3.17888 0
-56.1812 -3.17985 0
-54.5735 -3.18038 0
-52.9675 -3.17881 0
-51.3605 -3.17869 0
-49.7582 -3.17763 0
-48.1542 -3.17817 0
-46.547 -3.17796 0
-44.9448 -3.17664 0
-43.3392 -3.17684 0
-41.7336 -3.17871 0
-40.1292 -3.17542 0
-38.5257 -3.17722 0
-36.92 -3.17475 0
-35.3117 -3.17378 0
-33.7077 -3.17314 0
-32.1013 -3.17385 0
-30.4963 -3.17301 0
-28.8922 -3.17444 0
-27.288 -3.17516 0
-25.6834 -3.17453 0
-24.0745 -3.17631 0
-22.4673 -3.17724 0
-20.8637 -3.17598 0
-19.2582 -3.171 0
-17.6549 -3.17001 0
-16.0451 -3.16606 0
-14.442 -3.17077 0
-12.8386 -3.16994 0
-11.2323 -3.17133 0
-9.6274 -3.17067 0
-8.0217 -3.17215 0
-6.41932 -3.17103 0
-4.81339 -3.16875 0
-3.20897 -3.16827 0
-1.60535 -3.16519 0
0 -3.17084 0
-1084.51 97.9353 0
-1084.43 87.9045 0
-1084.52 78.2481 0
-1084.56 68.8285 0
-1084.52 59.6801 0
-1084.4 50.844 0
-1084.19 42.3979 0
-1083.9 34.407 0
-1083.55 26.9239 0
-1083.13 19.9855 0
-1082.66 13.6093 0
-1082.13 7.80183 0
-1081.59 2.5523 0
-1081.1 -2.237 0
-1080.67 -6.64343 0
-1080.29 -10.7032 0
-1079.87 -14.4399 0
-1079.39 -17.8223 0
-1078.88 -20.8246 0
-1078.33 -23.4417 0
-1077.77 -25.6677 0
-1077.19 -27.5218 0
-1076.6 -29.0157 0
-1076 -30.1787 0
-1075.38 -31.0334 0
-1074.74 -31.6065 0
-1074.08 -31.9298 0
-1073.39 -32.0275 0
-1072.66 -31.9215 0
-1071.9 -31.6361 0
-1071.11 -31.1904 0
-1070.27 -30.6026 0
-1069.39 -29.8888 0
-1068.47 -29.063 0
-1067.51 -28.1415 0
-1066.51 -27.1364 0
-1065.47 -26.0611 0
-1064.39 -24.9241 0
-1063.27 -23.7372 0
-1062.12 -22.5146 0
-1060.92 -21.2588 0
-1059.69 -19.9808 0
-1058.43 -18.6888 0
-1057.13 -17.389 0
-1055.8 -16.0895 0
-1054.44 -14.7932 0
-1053.06 -13.5057 0
-1051.64 -12.2334 0
-1050.2 -10.9811 0
-1048.73 -9.74962 0
-1047.24 -8.54483 0
-1045.72 -7.37133 0
-1044.19 -6.22719 0
-1042.63 -5.12062 0
-1041.06 -4.04946 0
-1039.47 -3.01681 0
-1037.86 -2.0237 0
-1036.24 -1.07193 0
-1034.6 -0.161952 0
-1032.95 0.7047 0
-1031.29 1.52599 0
-1029.61 2.30396 0
-1027.93 3.03576 0
-1026.23 3.72333 0
-1024.53 4.36432 0
-1022.82 4.96344 0
-1021.11 5.5161 0
-1019.39 6.02495 0
-1017.66 6.48826 0
-1015.93 6.90986 0
-1014.19 7.2881 0
-1012.46 7.62619 0
-1010.72 7.92301 0
-1008.97 8.18021 0
-1007.23 8.39845 0
-1005.49 8.57945 0
-1003.74 8.72413 0
-1002 8.83171 0
-1000.26 8.9058 0
-998.522 8.9456 0
-996.783 8.95513 0
-995.046 8.93285 0
-993.312 8.88204 0
-991.581 8.80261 0
-989.855 8.69835 0
-988.13 8.56953 0
-986.41 8.41585 0
-984.694 8.24056 0
-982.982 8.04378 0
-981.275 7.82852 0
-979.572 7.5934 0
-977.873 7.34176 0
-976.18 7.07679 0
-974.49 6.79509 0
-972.804 6.5004 0
-971.125 6.19605 0
-969.45 5.88057 0
-967.781 5.55711 0
-966.116 5.22624 0
-964.457 4.8892 0
-962.8 4.54654 0
-961.151 4.20101 0
-959.505 3.85079 0
-957.865 3.4993 0
-956.228 3.14536 0
-954.596 2.79451 0