<?xml version="1.0"?>
<VTKFile type="StructuredGrid"  version="0.1" byte_order="LittleEndian" compressor="vtkZLibDataCompressor">
  <StructuredGrid WholeExtent="0 700 0 30 0 0">
    <Piece Extent="0 700 0 30 0 0">
      <PointData Vectors="Velocity">
        <DataArray type="Float32" Name="Velocity" NumberOfComponents="3" format="ascii">
-1067.66 99.0046 0
-1068.08 89.1158 0
-1068.56 79.3637 0
-1069.05 69.825 0
-1069.56 60.5488 0
-1070.12 51.5979 0
-1070.72 43.0518 0
-1071.36 34.9703 0
-1071.99 27.4022 0
-1072.61 20.3467 0
-1073.21 13.835 0
-1073.78 7.88121 0
-1074.28 2.51724 0
-1074.67 -2.31087 0
-1074.9 -6.74623 0
-1075.14 -10.9081 0
-1075.34 -14.7901 0
-1075.61 -18.3094 0
-1075.87 -21.4289 0
-1076.08 -24.1624 0
-1076.26 -26.5154 0
-1076.4 -28.4969 0
-1076.5 -30.1368 0
-1076.54 -31.4512 0
-1076.52 -32.4641 0
-1076.42 -33.2045 0
-1076.25 -33.6961 0
-1076.01 -33.9623 0
-1075.69 -34.0233 0
-1075.3 -33.9071 0
-1074.83 -33.6227 0
-1074.29 -33.1892 0
-1073.67 -32.62 0
-1072.99 -31.9386 0
-1072.23 -31.1549 0
-1071.41 -30.273 0
-1070.53 -29.3162 0
-1069.59 -28.2892 0
-1068.59 -27.2069 0
-1067.52 -26.076 0
-1066.41 -24.9007 0
-1065.24 -23.7029 0
-1064.02 -22.4805 0
-1062.76 -21.2429 0
-1061.45 -19.9963 0
-1060.1 -18.7479 0
-1058.7 -17.4986 0
-1057.27 -16.2596 0
-1055.8 -15.0354 0
-1054.31 -13.8264 0
-1052.77 -12.6341 0
-1051.21 -11.4677 0
-1049.62 -10.3281 0
-1048.01 -9.22134 0
-1046.37 -8.14635 0
-1044.71 -7.10514 0
-1043.03 -6.10016 0
-1041.33 -5.1314 0
-1039.62 -4.202 0
-1037.89 -3.31665 0
-1036.14 -2.46976 0
-1034.38 -1.66375 0
-1032.61 -0.899587 0
-1030.83 -0.178771 0
-1029.04 0.498502 0
-1027.25 1.13249 0
-1025.44 1.72414 0
-1023.63 2.27028 0
-1021.82 2.77498 0
-1020 3.23914 0
-1018.18 3.66214 0
-1016.35 4.04352 0
-1014.53 4.38303 0
-1012.71 4.68223 0
-1010.88 4.94287 0
-1009.06 5.16745 0
-1007.24 5.35433 0
-1005.42 5.50556 0
-1003.6 5.62065 0
-1001.79 5.70801 0
-999.976 5.75735 0
-998.169 5.77656 0
-996.368 5.76405 0
-994.572 5.7265 0
-992.781 5.65851 0
-990.995 5.56495 0
-989.217 5.44647 0
-987.444 5.30578 0
-985.679 5.13945 0
-983.921 4.95127 0
-982.168 4.7449 0
-980.424 4.52279 0
-978.687 4.28405 0
-976.957 4.0279 0
-975.232 3.75791 0
-973.517 3.47329 0
-971.81 3.178 0
-970.11 2.87129 0
-968.416 2.55368 0
-966.731 2.23061 0
-965.053 1.90134 0
-963.38 1.56592 0
-961.716 1.22616 0
-960.059 0.881803 0
-958.407 0.533576 0
-956.761 0.185978 0
-955.122 -0.163203 0
-953.491 -0.512602 0
-951.864 -0.859462 0
-950.244 -1.20628 0
-948.631 -1.54889 0
-947.022 -1.88428 0
-945.418 -2.21824 0
-943.819 -2.54697 0
-942.225 -2.87041 0
-940.635 -3.18514 0
-939.052 -3.49211 0
-937.471 -3.79116 0
-935.893 -4.08376 0
-934.318 -4.36759 0
-932.746 -4.64067 0
-931.179 -4.90363 0
-929.612 -5.16061 0
-928.05 -5.40514 0
-926.491 -5.63962 0
-924.932 -5.86404 0
-923.376 -6.07397 0
-921.819 -6.27602 0
-920.268 -6.46704 0
-918.716 -6.64652 0
-917.165 -6.81468 0
-915.616 -6.97061 0
-914.065 -7.11559 0
-912.517 -7.24758 0
-910.966 -7.37285 0
-909.418 -7.48386 0
-907.869 -7.58671 0
-906.317 -7.67896 0
-904.769 -7.75668 0
-903.216 -7.82702 0
-901.666 -7.88567 0
-900.114 -7.93568 0
-898.562 -7.9754 0
-897.005 -8.00621 0
-895.451 -8.02616 0
-893.892 -8.03948 0
-892.336 -8.04255 0
-890.776 -8.03812 0
-889.215 -8.02376 0
-887.654 -8.00409 0
-886.09 -7.9765 0
-884.525 -7.94022 0
-882.957 -7.89906 0
-881.387 -7.84618 0
-879.815 -7.79349 0
-878.241 -7.73426 0
-876.664 -7.6665 0
-875.086 -7.59622 0
-873.508 -7.51879 0
-871.925 -7.43936 0
-870.342 -7.35443 0
-868.758 -7.26398 0
-867.17 -7.17283 0
-865.581 -7.07986 0
-863.992 -6.98548 0
-862.399 -6.88477 0
-860.806 -6.78247 0
-859.21 -6.67573 0
-857.612 -6.57258 0
-856.01 -6.46578 0
-854.413 -6.35925 0
-852.81 -6.24956 0
-851.207 -6.14064 0
-849.601 -6.03308 0
-847.993 -5.92134 0
-846.383 -5.8139 0
-844.771 -5.70567 0
-843.159 -5.59838 0
-841.545 -5.49123 0
-839.932 -5.38585 0
-838.316 -5.28126 0
-836.698 -5.17863 0
-835.08 -5.07843 0
-833.46 -4.97657 0
-831.841 -4.88237 0
-830.218 -4.78525 0
-828.594 -4.69278 0
-826.971 -4.6023 0
-825.347 -4.51655 0
-823.724 -4.43305 0
-822.097 -4.34838 0
-820.47 -4.26993 0
-818.844 -4.19269 0
-817.217 -4.12028 0
-815.588 -4.04731 0
-813.96 -3.98003 0
-812.331 -3.91632 0
-810.7 -3.8537 0
-809.07 -3.79425 0
-807.439 -3.7376 0
-805.81 -3.68559 0
-804.178 -3.63497 0
-802.549 -3.5914 0
-800.918 -3.55087 0
-799.289 -3.51507 0
-797.659 -3.47811 0
-796.029 -3.44379 0
-794.399 -3.41285 0
-792.768 -3.38734 0
-791.136 -3.36488 0
-789.505 -3.34382 0
-787.877 -3.32646 0
-786.246 -3.31205 0
-784.614 -3.29894 0
-782.983 -3.29075 0
-781.356 -3.28344 0
-779.728 -3.27928 0
-778.102 -3.27825 0
-776.472 -3.28137 0
-774.845 -3.28747 0
-773.22 -3.29328 0
-771.591 -3.30307 0
-769.965 -3.31128 0
-768.339 -3.32617 0
-766.715 -3.34271 0
-765.091 -3.35944 0
-763.469 -3.3795 0
-761.846 -3.39729 0
-760.222 -3.41992 0
-758.598 -3.44094 0
-756.974 -3.46774 0
-755.357 -3.49602 0
-753.736 -3.52215 0
-752.113 -3.54685 0
-750.492 -3.57998 0
-748.875 -3.60959 0
-747.259 -3.64005 0
-745.639 -3.67424 0
-744.021 -3.7064 0
-742.406 -3.74178 0
-740.79 -3.77433 0
-739.17 -3.81234 0
-737.553 -3.84877 0
-735.94 -3.88677 0
-734.326 -3.92378 0
-732.711 -3.95938 0
-731.097 -3.9973 0
-729.482 -4.03359 0
-727.868 -4.07066 0
-726.256 -4.10734 0
-724.646 -4.14422 0
-723.036 -4.18089 0
-721.426 -4.21807 0
-719.815 -4.25209 0
-718.202 -4.29044 0
-716.593 -4.32379 0
-714.983 -4.35799 0
-713.375 -4.39447 0
-711.766 -4.42691 0
-710.158 -4.46045 0
-708.551 -4.49217 0
-706.946 -4.52199 0
-705.335 -4.55283 0
-703.73 -4.58393 0
-702.125 -4.61287 0
-700.516 -4.64393 0
-698.909 -4.67212 0
-697.3 -4.69984 0
-695.691 -4.72718 0
-694.086 -4.75343 0
-692.479 -4.77666 0
-690.872 -4.79576 0
-689.266 -4.82129 0
-687.66 -4.84089 0
-686.056 -4.86255 0
-684.45 -4.88201 0
-682.843 -4.9013 0
-681.238 -4.91902 0
-679.631 -4.93851 0
-678.027 -4.95203 0
-676.425 -4.96652 0
-674.816 -4.97994 0
-673.213 -4.99088 0
-671.607 -5.0016 0
-670.001 -5.0147 0
-668.394 -5.02341 0
-666.788 -5.03523 0
-665.181 -5.0416 0
-663.575 -5.04877 0
-661.968 -5.05564 0
-660.363 -5.06432 0
-658.758 -5.06785 0
-657.154 -5.07081 0
-655.549 -5.07267 0
-653.942 -5.07485 0
-652.334 -5.07776 0
-650.728 -5.07619 0
-649.122 -5.07705 0
-647.511 -5.076 0
-645.906 -5.07514 0
-644.297 -5.07607 0
-642.691 -5.07339 0
-641.088 -5.06919 0
-639.478 -5.06694 0
-637.871 -5.06175 0
-636.263 -5.05533 0
-634.654 -5.05097 0
-633.048 -5.04472 0
-631.438 -5.03967 0
-629.833 -5.03102 0
-628.221 -5.02405 0
-626.616 -5.01514 0
-625.008 -5.00831 0
-623.397 -5.00282 0
-621.786 -4.99303 0
-620.176 -4.98497 0
-618.567 -4.97373 0
-616.96 -4.96262 0
-615.351 -4.9525 0
-613.738 -4.94401 0
-612.129 -4.92934 0
-610.519 -4.91955 0
-608.911 -4.91092 0
-607.302 -4.89852 0
-605.693 -4.88546 0
-604.08 -4.87895 0
-602.465 -4.86988 0
-600.853 -4.85752 0
-599.242 -4.84436 0
-597.634 -4.83625 0
-596.025 -4.82368 0
-594.413 -4.81224 0
-592.8 -4.80527 0
-591.187 -4.79315 0
-589.572 -4.78074 0
-587.96 -4.77263 0
-586.35 -4.76509 0
-584.742 -4.75223 0
-583.124 -4.74337 0
-581.514 -4.73593 0
-579.899 -4.72523 0
-578.287 -4.7179 0
-576.675 -4.71295 0
-575.062 -4.69834 0
-573.452 -4.6888 0
-571.84 -4.68007 0
-570.228 -4.6711 0
-568.612 -4.66379 0
-567 -4.65471 0
-565.388 -4.64657 0
-563.772 -4.64325 0
-562.159 -4.63856 0
-560.547 -4.63275 0
-558.931 -4.62687 0
-557.315 -4.62514 0
-555.705 -4.61335 0
-554.089 -4.60913 0
-552.478 -4.60555 0
-550.863 -4.59866 0
-549.251 -4.59057 0
-547.638 -4.58604 0
-546.025 -4.57631 0
-544.411 -4.57753 0
-542.801 -4.57375 0
-541.187 -4.57508 0
-539.574 -4.56986 0
-537.964 -4.56829 0
-536.352 -4.56149 0
-534.737 -4.568 0
-533.122 -4.56631 0
-531.51 -4.56417 0
-529.898 -4.56534 0
-528.286 -4.56681 0
-526.674 -4.56556 0
-525.056 -4.56496 0
-523.443 -4.56273 0
-521.83 -4.56367 0
-520.222 -4.56837 0
-518.603 -4.56976 0
-516.991 -4.56659 0
-515.378 -4.56792 0
-513.765 -4.57007 0
-512.154 -4.57286 0
-510.545 -4.57629 0
-508.929 -4.57872 0
-507.323 -4.58097 0
-505.708 -4.58958 0
-504.097 -4.58938 0
-502.484 -4.58635 0
-500.874 -4.59492 0
-499.262 -4.59872 0
-497.647 -4.59801 0
-496.037 -4.60214 0
-494.429 -4.60632 0
-492.81 -4.60983 0
-491.196 -4.61486 0
-489.585 -4.61763 0
-487.976 -4.61646 0
-486.364 -4.62435 0
-484.754 -4.63236 0
-483.141 -4.63096 0
-481.531 -4.63781 0
-479.917 -4.643 0
-478.306 -4.64621 0
-476.693 -4.65314 0
-475.075 -4.66021 0
-473.465 -4.66302 0
-471.859 -4.66372 0
-470.245 -4.67077 0
-468.637 -4.67304 0
-467.023 -4.6775 0
-465.411 -4.68272 0
-463.8 -4.68673 0
-462.187 -4.68844 0
-460.577 -4.69742 0
-458.968 -4.69755 0
-457.361 -4.70134 0
-455.752 -4.71041 0
-454.14 -4.71474 0
-452.529 -4.71645 0
-450.917 -4.71733 0
-449.304 -4.72563 0
-447.687 -4.72783 0
-446.078 -4.73682 0
-444.47 -4.74045 0
-442.863 -4.74414 0
-441.253 -4.74558 0
-439.641 -4.74952 0
-438.034 -4.75029 0
-436.421 -4.75529 0
-434.812 -4.76197 0
-433.2 -4.76079 0
-431.583 -4.76179 0
-429.974 -4.76698 0
-428.366 -4.76857 0
-426.753 -4.77549 0
-425.147 -4.77803 0
-423.528 -4.7836 0
-421.918 -4.7847 0
-420.314 -4.78932 0
-418.703 -4.7892 0
-417.095 -4.79256 0
-415.483 -4.79871 0
-413.868 -4.80093 0
-412.263 -4.79679 0
-410.649 -4.80251 0
-409.036 -4.80198 0
-407.428 -4.80879 0
-405.815 -4.81108 0
-404.205 -4.81003 0
-402.596 -4.82051 0
-400.987 -4.81385 0
-399.378 -4.81351 0
-397.769 -4.8189 0
-396.16 -4.81956 0
-394.55 -4.81686 0
-392.938 -4.81497 0
-391.329 -4.81962 0
-389.715 -4.81375 0
-388.111 -4.81965 0
-386.496 -4.81664 0
-384.886 -4.81758 0
-383.272 -4.81998 0
-381.662 -4.823 0
-380.058 -4.81771 0
-378.448 -4.81982 0
-376.834 -4.82447 0
-375.226 -4.821 0
-373.617 -4.82166 0
-372.01 -4.81987 0
-370.395 -4.82159 0
-368.78 -4.81277 0
-367.17 -4.81935 0
-365.563 -4.82429 0
-363.952 -4.82008 0
-362.343 -4.82178 0
-360.73 -4.81464 0
-359.118 -4.81206 0
-357.506 -4.8118 0
-355.893 -4.80844 0
-354.286 -4.80779 0
-352.676 -4.80287 0
-351.061 -4.80383 0
-349.454 -4.80252 0
-347.841 -4.80698 0
-346.231 -4.80763 0
-344.624 -4.8115 0
-343.017 -4.80699 0
-341.405 -4.80465 0
-339.794 -4.80374 0
-338.18 -4.79798 0
-336.571 -4.80803 0
-334.962 -4.80754 0
-333.347 -4.80129 0
-331.739 -4.80318 0
-330.13 -4.80043 0
-328.517 -4.79959 0
-326.903 -4.796 0
-325.296 -4.79717 0
-323.685 -4.7986 0
-322.076 -4.79753 0
-320.463 -4.79538 0
-318.854 -4.79705 0
-317.243 -4.79338 0
-315.633 -4.79435 0
-314.024 -4.79257 0
-312.413 -4.79196 0
-310.798 -4.78915 0
-309.187 -4.7876 0
-307.574 -4.78531 0
-305.963 -4.78652 0
-304.349 -4.78384 0
-302.737 -4.78133 0
-301.126 -4.78133 0
-299.518 -4.78451 0
-297.906 -4.78661 0
-296.296 -4.78372 0
-294.687 -4.78086 0
-293.077 -4.78439 0
-291.466 -4.77578 0
-289.858 -4.77749 0
-288.249 -4.77206 0
-286.638 -4.77216 0
-285.03 -4.77618 0
-283.412 -4.77765 0
-281.805 -4.77566 0
-280.194 -4.77333 0
-278.582 -4.77338 0
-276.971 -4.77046 0
-275.36 -4.77587 0
-273.75 -4.77564 0
-272.136 -4.77678 0
-270.527 -4.77035 0
-268.916 -4.76951 0
-267.303 -4.76671 0
-265.692 -4.76941 0
-264.078 -4.76365 0
-262.462 -4.77051 0
-260.86 -4.76956 0
-259.251 -4.76542 0
-257.64 -4.76869 0
-256.028 -4.77003 0
-254.414 -4.76467 0
-252.8 -4.7676 0
-251.191 -4.76639 0
-249.582 -4.76381 0
-247.971 -4.76778 0
-246.362 -4.77349 0
-244.75 -4.76769 0
-243.14 -4.76752 0
-241.532 -4.7673 0
-239.923 -4.77002 0
-238.312 -4.76996 0
-236.701 -4.76311 0
-235.089 -4.7591 0
-233.476 -4.7645 0
-231.866 -4.76805 0
-230.255 -4.76467 0
-228.65 -4.76254 0
-227.037 -4.76603 0
-225.419 -4.76309 0
-223.815 -4.7609 0
-222.209 -4.76626 0
-220.597 -4.77213 0
-218.985 -4.77233 0
-217.372 -4.77593 0
-215.758 -4.76407 0
-214.147 -4.76387 0
-212.537 -4.762 0
-210.925 -4.76425 0
-209.318 -4.76079 0
-207.706 -4.7654 0
-206.099 -4.7599 0
-204.488 -4.76188 0
-202.88 -4.77088 0
-201.271 -4.76541 0
-199.663 -4.76854 0
-198.052 -4.76706 0
-196.438 -4.77088 0
-194.823 -4.77353 0
-193.212 -4.77158 0
-191.598 -4.7677 0
-189.992 -4.77061 0
-188.379 -4.76248 0
-186.769 -4.76647 0
-185.16 -4.76828 0
-183.55 -4.77258 0
-181.944 -4.77213 0
-180.333 -4.77384 0
-178.719 -4.77337 0
-177.111 -4.77057 0
-175.498 -4.7712 0
-173.887 -4.77127 0
-172.277 -4.76914 0
-170.662 -4.76547 0
-169.054 -4.76883 0
-167.448 -4.76658 0
-165.833 -4.76904 0
-164.221 -4.76261 0
-162.611 -4.76689 0
-161.001 -4.76956 0
-159.398 -4.77552 0
-157.788 -4.77647 0
-156.176 -4.77872 0
-154.566 -4.77515 0
-152.958 -4.77286 0
-151.345 -4.77366 0
-149.735 -4.78194 0
-148.124 -4.78213 0
-146.513 -4.77722 0
-144.903 -4.77669 0
-143.292 -4.77874 0
-141.685 -4.78429 0
-140.072 -4.78087 0
-138.466 -4.78221 0
-136.854 -4.78443 0
-135.247 -4.78072 0
-133.632 -4.78289 0
-132.023 -4.77771 0
-130.408 -4.77918 0
-128.8 -4.78083 0
-127.192 -4.78398 0
-125.583 -4.77788 0
-123.97 -4.77246 0
-122.359 -4.77954 0
-120.752 -4.78204 0
-119.14 -4.78312 0
-117.533 -4.77955 0
-115.922 -4.77933 0
-114.31 -4.78353 0
-112.701 -4.7799 0
-111.094 -4.78511 0
-109.482 -4.78683 0
-107.87 -4.78303 0
-106.257 -4.78157 0
-104.645 -4.7852 0
-103.039 -4.78071 0
-101.427 -4.77516 0
-99.8135 -4.77935 0
-98.2053 -4.77692 0
-96.597 -4.7788 0
-94.9855 -4.77705 0
-93.376 -4.77911 0
-91.7639 -4.78193 0
-90.1558 -4.78364 0
-88.5481 -4.77861 0
-86.9382 -4.78092 0
-85.3265 -4.78163 0
-83.7166 -4.77853 0
-82.1071 -4.78126 0
-80.4999 -4.7808 0
-78.8922 -4.77676 0
-77.283 -4.77705 0
-75.6718 -4.77935 0
-74.0633 -4.78159 0
-72.4469 -4.78032 0
-70.8383 -4.7742 0
-69.2255 -4.78069 0
-67.617 -4.78511 0
-66.0065 -4.78262 0
-64.3973 -4.78013 0
-62.7939 -4.78302 0
-61.1785 -4.78103 0
-59.5678 -4.78549 0
-57.9593 -4.78377 0
-56.3518 -4.77942 0
-54.7424 -4.77774 0
-53.1313 -4.7802 0
-51.5184 -4.78082 0
-49.9095 -4.78056 0
-48.3022 -4.78006 0
-46.6942 -4.77769 0
-45.0791 -4.77818 0
-43.4733 -4.78029 0
-41.8633 -4.77784 0
-40.2513 -4.78063 0
-38.6437 -4.77631 0
-37.0307 -4.7765 0
-35.4195 -4.78117 0
-33.8101 -4.78209 0
-32.2005 -4.78255 0
-30.591 -4.7795 0
-28.9847 -4.7769 0
-27.3731 -4.77916 0
-25.7665 -4.77788 0
-24.1543 -4.77804 0
-22.5406 -4.77734 0
-20.9306 -4.78376 0
-19.322 -4.7797 0
-17.7094 -4.78297 0
-16.0972 -4.78444 0
-14.4897 -4.78127 0
-12.8767 -4.77834 0
-11.2664 -4.78155 0
-9.65725 -4.77914 0
-8.05171 -4.78392 0
-6.44364 -4.78058 0
-4.83173 -4.77896 0
-3.22312 -4.77673 0
-1.61275 -4.77798 0
0 -4.77082 0
-1077.55 99.4545 0
-1077.86 89.516 0
-1078.16 79.733 0
-1078.45 70.169 0
-1078.7 60.8612 0
-1078.92 51.8615 0
-1079.09 43.2631 0
-1079.23 35.1327 0
-1079.34 27.5197 0
-1079.41 20.4392 0
-1079.44 13.9112 0
-1079.4 7.95752 0
-1079.31 2.59893 0
-1079.23 -2.21413 0
-1079.22 -6.65178 0
-1079.18 -10.8238 0
-1079.12 -14.7078 0
-1079 -18.235 0
-1078.84 -21.3543 0
-1078.67 -24.0837 0
-1078.48 -26.4288 0
-1078.27 -28.3922 0
-1078.03 -30.0029 0
-1077.75 -31.2787 0
-1077.44 -32.2471 0
-1077.07 -32.9332 0
-1076.66 -33.3671 0
-1076.2 -33.5741 0
-1075.69 -33.5778 0
-1075.12 -33.394 0
-1074.49 -33.0455 0
-1073.8 -32.5477 0
-1073.06 -31.9191 0
-1072.26 -31.1768 0
-1071.41 -30.3307 0
-1070.51 -29.3895 0
-1069.55 -28.3739 0
-1068.55 -27.2953 0
-1067.49 -26.156 0
-1066.39 -24.9733 0
-1065.24 -23.7504 0
-1064.05 -22.5031 0
-1062.81 -21.2357 0
-1061.53 -19.9555 0
-1060.22 -18.6688 0
-1058.86 -17.3793 0
-1057.48 -16.0951 0
-1056.06 -14.8213 0
-1054.61 -13.5655 0
-1053.13 -12.3252 0
-1051.62 -11.1055 0
-1050.08 -9.91229 0
-1048.52 -8.74905 0
-1046.94 -7.61867 0
-1045.33 -6.52242 0
-1043.71 -5.45983 0
-1042.07 -4.43756 0
-1040.41 -3.45271 0
-1038.73 -2.50738 0
-1037.04 -1.60887 0
-1035.33 -0.747289 0
-1033.62 0.0689421 0
-1031.89 0.842719 0
-1030.15 1.57337 0
-1028.4 2.25674 0
-1026.65 2.89996 0
-1024.89 3.49547 0
-1023.12 4.04924 0
-1021.35 4.55717 0
-1019.57 5.02323 0
-1017.79 5.44801 0
-1016.01 5.83075 0
-1014.22 6.17084 0
-1012.44 6.4711 0
-1010.65 6.73185 0
-1008.86 6.95439 0
-1007.08 7.13989 0
-1005.29 7.28921 0
-1003.51 7.40329 0
-1001.73 7.48517 0
-999.948 7.5316 0
-998.17 7.5459 0
-996.397 7.53084 0
-994.63 7.48751 0
-992.865 7.41445 0
-991.105 7.31672 0
-989.35 7.19088 0
-987.599 7.04297 0
-985.857 6.87134 0
-984.117 6.67803 0
-982.384 6.46628 0
-980.656 6.23694 0
-978.935 5.99113 0
-977.219 5.73001 0
-975.509 5.45257 0
-973.805 5.16053 0
-972.108 4.85885 0
-970.418 4.54586 0
-968.733 4.22216 0
-967.054 3.89304 0
-965.383 3.55678 0
-963.715 3.21456 0
-962.054 2.86821 0
-960.399 2.51643 0
-958.75 2.16274 0
-957.107 1.81022 0
-955.468 1.45528 0
-953.834 1.09982 0
-952.206 0.746022 0
-950.585 0.396112 0
-948.967 0.0479518 0
-947.354 -0.293346 0
-945.745 -0.632181 0
-944.141 -0.96388 0
-942.541 -1.29166 0
-940.945 -1.61036 0
-939.352 -1.92178 0
-937.762 -2.22316 0
-936.177 -2.51892 0
-934.594 -2.80562 0
-933.012 -3.08167 0
-931.436 -3.34841 0
-929.861 -3.6071 0
-928.287 -3.85392 0
-926.716 -4.09035 0
-925.147 -4.31586 0
-923.579 -4.52947 0
-922.013 -4.73211 0
-920.449 -4.92484 0
-918.886 -5.10505 0
-917.324 -5.27369 0
-915.763 -5.42916 0
-914.203 -5.57557 0
-912.641 -5.70827 0
-911.082 -5.83359 0
-909.522 -5.94576 0
-907.962 -6.04677 0
-906.402 -6.13746 0
-904.84 -6.21637 0
-903.28 -6.28606 0
-901.719 -6.34497 0
-900.157 -6.39424 0
-898.595 -6.43299 0
-897.031 -6.46091 0
-895.467 -6.48047 0
-893.901 -6.49191 0
-892.334 -6.49565 0
-890.767 -6.48885 0
-889.198 -6.47409 0
-887.627 -6.45268 0
-886.056 -6.42239 0
-884.485 -6.38571 0
-882.909 -6.34183 0
-881.334 -6.28895 0
-879.757 -6.23394 0
-878.178 -6.17184 0
-876.597 -6.10395 0
-875.014 -6.03146 0
-873.429 -5.95217 0
-871.844 -5.87005 0
-870.256 -5.78315 0
-868.668 -5.69275 0
-867.079 -5.59995 0
-865.488 -5.50349 0
-863.894 -5.40707 0
-862.3 -5.30542 0
-860.704 -5.20134 0
-859.106 -5.09359 0
-857.508 -4.98759 0
-855.908 -4.88181 0
-854.306 -4.77129 0
-852.704 -4.66124 0
-851.1 -4.55134 0
-849.493 -4.44082 0
-847.884 -4.33051 0
-846.275 -4.22076 0
-844.664 -4.1102 0
-843.052 -4.00134 0
-841.44 -3.89396 0
-839.828 -3.78732 0
-838.213 -3.68083 0
-836.597 -3.57715 0
-834.98 -3.47566 0
-833.361 -3.37453 0
-831.744 -3.27713 0
-830.124 -3.17897 0
-828.505 -3.08677 0
-826.885 -2.99654 0
-825.263 -2.90913 0
-823.641 -2.82439 0
-822.018 -2.74018 0
-820.395 -2.65977 0
-818.771 -2.5824 0
-817.147 -2.50837 0
-815.521 -2.43588 0
-813.895 -2.3686 0
-812.269 -2.3038 0
-810.641 -2.24189 0
-809.015 -2.18017 0
-807.388 -2.12601 0
-805.761 -2.07153 0
-804.135 -2.0232 0
-802.507 -1.97866 0
-800.881 -1.93735 0
-799.253 -1.89955 0
-797.626 -1.86348 0
-795.999 -1.82917 0
-794.369 -1.79971 0
-792.742 -1.77472 0
-791.114 -1.75053 0
-789.487 -1.73038 0
-787.859 -1.71383 0
-786.233 -1.70185 0
-784.605 -1.68729 0
-782.978 -1.67822 0
-781.352 -1.67209 0
-779.726 -1.66956 0
-778.101 -1.66662 0
-776.478 -1.67064 0
-774.85 -1.67685 0
-773.225 -1.68339 0
-771.601 -1.69471 0
-769.978 -1.70396 0
-768.354 -1.71747 0
-766.733 -1.73458 0
-765.111 -1.75111 0
-763.488 -1.77179 0
-761.867 -1.79101 0
-760.246 -1.81325 0
-758.624 -1.83588 0
-757.004 -1.86242 0
-755.383 -1.88997 0
-753.763 -1.91588 0
-752.142 -1.94442 0
-750.524 -1.9771 0
-748.906 -2.0083 0
-747.289 -2.0373 0
-745.672 -2.07398 0
-744.054 -2.10765 0
-742.437 -2.14192 0
-740.822 -2.17613 0
-739.205 -2.21027 0
-737.59 -2.25033 0
-735.975 -2.28884 0
-734.362 -2.32363 0
-732.748 -2.36189 0
-731.135 -2.39687 0
-729.52 -2.43596 0
-727.907 -2.47293 0
-726.293 -2.51246 0
-724.682 -2.54857 0
-723.071 -2.5871 0
-721.461 -2.62323 0
-719.851 -2.6566 0
-718.239 -2.69408 0
-716.628 -2.72884 0
-715.017 -2.76654 0
-713.406 -2.80002 0
-711.799 -2.83456 0
-710.191 -2.86608 0
-708.581 -2.90012 0
-706.974 -2.92993 0
-705.368 -2.96094 0
-703.759 -2.99214 0
-702.152 -3.02178 0
-700.545 -3.05298 0
-698.938 -3.08042 0
-697.327 -3.10669 0
-695.719 -3.13628 0
-694.109 -3.16074 0
-692.5 -3.18402 0
-690.893 -3.20567 0
-689.286 -3.22969 0
-687.682 -3.25146 0
-686.074 -3.27175 0
-684.468 -3.29276 0
-682.861 -3.3104 0
-681.256 -3.3297 0
-679.648 -3.34609 0
-678.04 -3.36208 0
-676.434 -3.37618 0
-674.831 -3.389 0
-673.221 -3.3994 0
-671.614 -3.41087 0
-670.009 -3.42278 0
-668.404 -3.43348 0
-666.796 -3.44489 0
-665.19 -3.45186 0
-663.584 -3.45714 0
-661.977 -3.46371 0
-660.371 -3.47342 0
-658.763 -3.47725 0
-657.156 -3.48066 0
-655.548 -3.48054 0
-653.941 -3.4861 0
-652.335 -3.48616 0
-650.727 -3.48488 0
-649.121 -3.48414 0
-647.512 -3.48494 0
-645.906 -3.48494 0
-644.3 -3.48227 0
-642.688 -3.48333 0
-641.082 -3.4784 0
-639.473 -3.47567 0
-637.867 -3.46936 0
-636.26 -3.46294 0
-634.652 -3.45728 0
-633.043 -3.45136 0
-631.432 -3.44699 0
-629.824 -3.43878 0
-628.215 -3.42883 0
-626.605 -3.42277 0
-624.998 -3.41442 0
-623.39 -3.40609 0
-621.776 -3.39826 0
-620.166 -3.38778 0
-618.557 -3.38019 0
-616.947 -3.3707 0
-615.339 -3.35584 0
-613.729 -3.34676 0
-612.121 -3.33563 0
-610.508 -3.32247 0
-608.9 -3.31668 0
-607.291 -3.30693 0
-605.68 -3.29245 0
-604.068 -3.28124 0
-602.456 -3.27444 0
-600.843 -3.25996 0
-599.231 -3.24878 0
-597.621 -3.23968 0
-596.013 -3.22788 0
-594.4 -3.21487 0
-592.789 -3.20705 0
-591.174 -3.19469 0
-589.564 -3.18343 0
-587.953 -3.17447 0
-586.34 -3.16731 0
-584.725 -3.15544 0
-583.113 -3.14885 0
-581.501 -3.14102 0
-579.892 -3.13225 0
-578.278 -3.11956 0
-576.666 -3.11388 0
-575.049 -3.10077 0
-573.44 -3.09241 0
-571.829 -3.08595 0
-570.217 -3.0749 0
-568.604 -3.06561 0
-566.994 -3.0565 0
-565.381 -3.05143 0
-563.768 -3.04422 0
-562.153 -3.04115 0
-560.538 -3.03514 0
-558.925 -3.02997 0
-557.311 -3.02588 0
-555.697 -3.01611 0
-554.084 -3.01234 0
-552.472 -3.00429 0
-550.861 -3.00277 0
-549.25 -2.99266 0
-547.634 -2.98858 0
-546.024 -2.98221 0
-544.412 -2.98326 0
-542.8 -2.98054 0
-541.185 -2.97755 0
-539.57 -2.97401 0
-537.958 -2.9705 0
-536.348 -2.96631 0
-534.735 -2.97025 0
-533.121 -2.96796 0
-531.508 -2.96816 0
-529.896 -2.96937 0
-528.281 -2.9687 0
-526.669 -2.96713 0
-525.057 -2.96648 0
-523.444 -2.96694 0
-521.831 -2.96638 0
-520.221 -2.96948 0
-518.609 -2.96977 0
-516.994 -2.9718 0
-515.382 -2.97196 0
-513.767 -2.9704 0
-512.156 -2.97797 0
-510.542 -2.98119 0
-508.934 -2.98209 0
-507.323 -2.98611 0
-505.712 -2.9903 0
-504.098 -2.99089 0
-502.487 -2.99167 0
-500.876 -2.99838 0
-499.263 -3.00112 0
-497.65 -3.00505 0
-496.039 -3.00595 0
-494.425 -3.01042 0
-492.815 -3.0109 0
-491.202 -3.01609 0
-489.589 -3.01939 0
-487.976 -3.02378 0
-486.368 -3.02824 0
-484.751 -3.03416 0
-483.144 -3.03568 0
-481.532 -3.04048 0
-479.921 -3.04783 0
-478.309 -3.05165 0
-476.694 -3.05652 0
-475.081 -3.06265 0
-473.469 -3.06557 0
-471.861 -3.06898 0
-470.249 -3.07329 0
-468.638 -3.07811 0
-467.032 -3.0825 0
-465.418 -3.0848 0
-463.806 -3.08689 0
-462.194 -3.09453 0
-460.586 -3.1035 0
-458.971 -3.10484 0
-457.362 -3.10736 0
-455.752 -3.11513 0
-454.143 -3.1161 0
-452.531 -3.12152 0
-450.921 -3.12196 0
-449.308 -3.12827 0
-447.696 -3.13486 0
-446.086 -3.14247 0
-444.475 -3.14632 0
-442.866 -3.15014 0
-441.254 -3.15187 0
-439.643 -3.15273 0
-438.031 -3.15793 0
-436.423 -3.16077 0
-434.809 -3.16567 0
-433.2 -3.16652 0
-431.59 -3.16886 0
-429.979 -3.17329 0
-428.365 -3.17688 0
-426.753 -3.17749 0
-425.144 -3.18277 0
-423.535 -3.18594 0
-421.925 -3.18962 0
-420.315 -3.19442 0
-418.705 -3.19603 0
-417.097 -3.1984 0
-415.487 -3.201 0
-413.876 -3.20533 0
-412.266 -3.20502 0
-410.653 -3.20686 0
-409.044 -3.20814 0
-407.431 -3.2142 0
-405.822 -3.2148 0
-404.209 -3.21999 0
-402.599 -3.22036 0
-400.987 -3.22036 0
-399.377 -3.22099 0
-397.769 -3.22192 0
-396.156 -3.2237 0
-394.546 -3.22136 0
-392.938 -3.22075 0
-391.326 -3.22339 0
-389.718 -3.22645 0
-388.108 -3.22201 0
-386.5 -3.22163 0
-384.885 -3.22227 0
-383.273 -3.22608 0
-381.662 -3.2284 0
-380.054 -3.2241 0
-378.447 -3.22695 0
-376.835 -3.2273 0
-375.227 -3.22879 0
-373.617 -3.22759 0
-372.007 -3.22235 0
-370.396 -3.22455 0
-368.786 -3.2219 0
-367.174 -3.22667 0
-365.562 -3.22963 0
-363.952 -3.22454 0
-362.338 -3.22229 0
-360.729 -3.22289 0
-359.119 -3.22097 0
-357.51 -3.21474 0
-355.9 -3.21324 0
-354.287 -3.21445 0
-352.674 -3.20624 0
-351.065 -3.21228 0
-349.455 -3.20786 0
-347.842 -3.21162 0
-346.234 -3.21517 0
-344.623 -3.21407 0
-343.012 -3.21286 0
-341.4 -3.20907 0
-339.789 -3.20889 0
-338.179 -3.20565 0
-336.571 -3.20965 0
-334.962 -3.20798 0
-333.352 -3.20714 0
-331.74 -3.20888 0
-330.128 -3.20711 0
-328.516 -3.20393 0
-326.906 -3.20269 0
-325.292 -3.20381 0
-323.682 -3.20423 0
-322.071 -3.20319 0
-320.461 -3.19997 0
-318.851 -3.1998 0
-317.241 -3.2001 0
-315.631 -3.19829 0
-314.019 -3.19907 0
-312.407 -3.19605 0
-310.797 -3.19757 0
-309.182 -3.19227 0
-307.572 -3.19164 0
-305.961 -3.1915 0
-304.351 -3.18549 0
-302.738 -3.18653 0
-301.127 -3.19111 0
-299.515 -3.19059 0
-297.906 -3.19108 0
-296.297 -3.18698 0
-294.686 -3.18869 0
-293.074 -3.18363 0
-291.464 -3.18684 0
-289.855 -3.18233 0
-288.243 -3.18186 0
-286.634 -3.18041 0
-285.026 -3.18135 0
-283.415 -3.17943 0
-281.802 -3.18132 0
-280.193 -3.17917 0
-278.582 -3.17761 0
-276.969 -3.17635 0
-275.362 -3.18087 0
-273.749 -3.17915 0
-272.138 -3.1787 0
-270.526 -3.1782 0
-268.915 -3.17217 0
-267.303 -3.17181 0
-265.694 -3.17696 0
-264.082 -3.17245 0
-262.472 -3.17452 0
-260.86 -3.17926 0
-259.251 -3.17395 0
-257.638 -3.1784 0
-256.03 -3.17428 0
-254.418 -3.16789 0
-252.807 -3.16803 0
-251.196 -3.17339 0
-249.585 -3.17251 0
-247.976 -3.17147 0
-246.362 -3.16936 0
-244.751 -3.17356 0
-243.139 -3.17175 0
-241.532 -3.17306 0
-239.921 -3.17052 0
-238.31 -3.1741 0
-236.697 -3.16653 0
-235.089 -3.16604 0
-233.479 -3.17079 0
-231.868 -3.16969 0
-230.259 -3.17399 0
-228.646 -3.16803 0
-227.038 -3.16939 0
-225.427 -3.17189 0
-223.818 -3.17183 0
-222.209 -3.17325 0
-220.594 -3.1724 0
-218.981 -3.17612 0
-217.372 -3.17688 0
-215.759 -3.17296 0
-214.148 -3.16913 0
-212.536 -3.16719 0
-210.928 -3.16853 0
-209.319 -3.16443 0
-207.708 -3.17229 0
-206.103 -3.16609 0
-204.493 -3.1691 0
-202.881 -3.16992 0
-201.27 -3.17351 0
-199.659 -3.17639 0
-198.051 -3.1722 0
-196.435 -3.17687 0
-194.826 -3.17371 0
-193.213 -3.17374 0
-191.603 -3.17713 0
-189.994 -3.17358 0
-188.38 -3.16988 0
-186.769 -3.17073 0
-185.162 -3.17414 0
-183.553 -3.18026 0
-181.942 -3.17605 0
-180.337 -3.17404 0
-178.721 -3.17792 0
-177.11 -3.1773 0
-175.499 -3.17388 0
-173.888 -3.17769 0
-172.277 -3.17531 0
-170.666 -3.17191 0
-169.054 -3.17391 0
-167.443 -3.17278 0
-165.833 -3.17302 0
-164.224 -3.17251 0
-162.617 -3.17473 0
-161.005 -3.17756 0
-159.394 -3.18223 0
-157.787 -3.18494 0
-156.178 -3.18312 0
-154.563 -3.17917 0
-152.952 -3.17965 0
-151.345 -3.18002 0
-149.736 -3.18564 0
-148.124 -3.18006 0
-146.514 -3.18641 0
-144.903 -3.18335 0
-143.295 -3.18298 0
-141.684 -3.18973 0
-140.076 -3.19008 0
-138.466 -3.18877 0
-136.854 -3.18864 0
-135.245 -3.18512 0
-133.635 -3.18349 0
-132.022 -3.1892 0
-130.412 -3.18607 0
-128.8 -3.18898 0
-127.191 -3.18467 0
-125.58 -3.18403 0
-123.968 -3.18153 0
-122.361 -3.18535 0
-120.749 -3.18655 0
-119.141 -3.18616 0
-117.529 -3.18398 0
-115.921 -3.18437 0
-114.312 -3.18424 0
-112.7 -3.18559 0
-111.091 -3.19093 0
-109.477 -3.18903 0
-107.869 -3.18706 0
-106.258 -3.18884 0
-104.649 -3.18806 0
-103.036 -3.18709 0
-101.427 -3.18168 0
-99.8169 -3.18271 0
-98.2065 -3.18455 0
-96.5966 -3.18546 0
-94.9868 -3.18414 0
-93.3776 -3.18581 0
-91.7704 -3.18595 0
-90.1594 -3.18891 0
-88.5491 -3.18543 0
-86.9375 -3.18582 0
-85.3299 -3.18597 0
-83.7182 -3.18786 0
-82.1092 -3.18431 0
-80.5005 -3.18492 0
-78.8892 -3.18341 0
-77.2798 -3.1828 0
-75.6717 -3.18354 0
-74.0593 -3.18653 0
-72.4491 -3.18839 0
-70.8391 -3.18517 0
-69.2274 -3.18497 0
-67.6198 -3.18788 0
-66.0112 -3.18916 0
-64.4035 -3.18878 0
-62.7899 -3.18785 0
-61.18 -3.18434 0
-59.5688 -3.1873 0
-57.9584 -3.18914 0
-56.347 -3.18656 0
-54.7403 -3.18638 0
-53.1308 -3.18497 0
-51.5198 -3.18622 0
-49.9095 -3.18369 0
-48.2986 -3.18486 0
-46.6914 -3.18484 0
-45.0836 -3.18417 0
-43.4751 -3.18157 0
-41.862 -3.18251 0
-40.2493 -3.18571 0
-38.6366 -3.18504 0
-37.0275 -3.18401 0
-35.4189 -3.18526 0
-33.8105 -3.18645 0
-32.1988 -3.18908 0
-30.5883 -3.18606 0
-28.9808 -3.18425 0
-27.3701 -3.18367 0
-25.759 -3.18529 0
-24.1503 -3.18494 0
-22.5429 -3.18246 0
-20.9329 -3.18579 0
-19.319 -3.18604 0
-17.708 -3.18836 0
-16.0953 -3.1874 0
-14.485 -3.18465 0
-12.8762 -3.18406 0
-11.2674 -3.18812 0
-9.66034 -3.18772 0
-8.04972 -3.18804 0
-6.43876 -3.18918 0
-4.8315 -3.18228 0
-3.22242 -3.18325 0
-1.60853 -3.18409 0
0 -3.1797 0
-1087.69 100.261 0
-1087.6 90.0966 0
-1087.68 80.3059 0
-1087.71 70.7552 0
-1087.66 61.4659 0
-1087.54 52.4926 0
-1087.31 43.9042 0
-1087.02 35.7687 0
-1086.66 28.1446 0
-1086.24 21.0612 0
-1085.76 14.5388 0
-1085.23 8.58663 0
-1084.68 3.1976 0
-1084.19 -1.72393 0
-1083.75 -6.24767 0
-1083.36 -10.4246 0
-1082.94 -14.2815 0
-1082.47 -17.7802 0
-1081.95 -20.8971 0
-1081.4 -23.6277 0
-1080.84 -25.9721 0
-1080.26 -27.9351 0
-1079.67 -29.5335 0
-1079.07 -30.7949 0
-1078.45 -31.7451 0
-1077.81 -32.4064 0
-1077.15 -32.8094 0
-1076.46 -32.979 0
-1075.74 -32.9403 0
-1074.99 -32.713 0
-1074.2 -32.3186 0
-1073.37 -31.7738 0
-1072.5 -31.1016 0
-1071.59 -30.3091 0
-1070.64 -29.4144 0
-1069.65 -28.429 0
-1068.61 -27.3679 0
-1067.54 -26.2422 0
-1066.43 -25.0583 0
-1065.28 -23.8317 0
-1064.09 -22.5693 0
-1062.87 -21.2843 0
-1061.62 -19.9782 0
-1060.33 -18.6605 0
-1059 -17.3374 0
-1057.65 -16.0165 0
-1056.27 -14.7002 0
-1054.86 -13.3975 0
-1053.42 -12.1132 0
-1051.96 -10.845 0
-1050.47 -9.60033 0
-1048.96 -8.38275 0
-1047.43 -7.19747 0
-1045.87 -6.04664 0
-1044.3 -4.93113 0
-1042.71 -3.85076 0
-1041.1 -2.81195 0
-1039.48 -1.81225 0
-1037.84 -0.853195 0
-1036.19 0.061227 0
-1034.53 0.933056 0
-1032.85 1.75875 0
-1031.17 2.54277 0
-1029.47 3.28338 0
-1027.77 3.97638 0
-1026.05 4.62355 0
-1024.33 5.22571 0
-1022.61 5.78444 0
-1020.88 6.29845 0
-1019.14 6.76769 0
-1017.4 7.19441 0
-1015.66 7.57991 0
-1013.91 7.92193 0
-1012.16 8.22247 0
-1010.41 8.4846 0
-1008.66 8.70603 0
-1006.91 8.89037 0
-1005.16 9.04004 0
-1003.41 9.15195 0
-1001.66 9.23054 0
-999.913 9.2757 0
-998.168 9.28722 0
-996.423 9.26875 0
-994.682 9.22183 0
-992.944 9.14466 0
-991.209 9.04266 0
-989.479 8.91309 0
-987.752 8.76005 0
-986.028 8.5837 0
-984.308 8.38725 0
-982.593 8.16979 0
-980.882 7.93558 0
-979.178 7.68361 0
-977.476 7.41671 0
-975.78 7.13372 0
-974.089 6.83805 0
-972.404 6.52958 0
-970.721 6.21039 0
-969.046 5.88177 0
-967.375 5.54765 0
-965.707 5.20628 0
-964.046 4.85732 0
-962.389 4.50591 0
-960.737 4.14953 0
-959.089 3.79074 0